==================================================================================
It's Sat 29 Mar 2025 11:28:03 AM GMT.
*** Starting onetep_launcher (node nid002099, PIDs 201654 201655 201656 201657 201658 201659 201660 201661 201662 201663 201664 201665 201666 201667 201668 201669)...
    - ONETEP arguments: Co_cluster3_sp_F_4P0.dat
    - Current directory: /mnt/lustre/a2fs-work3/work/e89/e89/phsmea/Co_clusters_archer/Co_cluster3/nsp/4P0
    - Launcher executable directory: /mnt/lustre/a2fs-work3/work/e89/e89/phsmea/Co_clusters_archer
    - (-e) ONETEP executable specified through command-line: /work/e89/e89/phsmea/onetep.archer2_2024_cray
      ... trying /work/e89/e89/phsmea/onetep.archer2_2024_cray
          -> looks OK
*** Setting up environment...
    - (-s) Process stack size: unlimited
    - (-t) OMP_NUM_THREADS: 8
    - (-o) OMP_STACKSIZE: 64M
    - (-c) Maximum core file size: 2048000
    - (-d) decfort_dump_flag: n
    - (-m) I_MPI_OFA_TRANSLATION_CACHE: 0
    - (-m) I_MPI_DAPL_TRANSLATION_CACHE: 0
    - (-m) I_MPI_DAPL_UD_TRANSLATION_CACHE: 0
*** Starting ONETEP...
    - /work/e89/e89/phsmea/onetep.archer2_2024_cray Co_cluster3_sp_F_4P0.dat
=================================================================================
_________________________________________________________________________________
 +---------------------------------------------------------------+
 |                                                               |
 |        ####### #     # ####### ####### ####### ######         |
 |        #     # ##    # #          #    #       #     #        |
 |        #     # # #   # #          #    #       #     #        |
 |        #     # #  #  # #####      #    #####   ######         |
 |        #     # #   # # #          #    #       #              |
 |        #     # #    ## #          #    #       #              |
 |        ####### #     # #######    #    ####### #              |
 |                                                               |
 |        Linear-Scaling Ab Initio Total Energy Program          |
 |                                                               |
 |          Release for academic collaborators of ODG            |
 |                                             Version 7.3.0     |
 | Remote: git@github.com:Miesaz/onetep_mea.git                  |
 | Local branch: master                                          |
 | Commit ID: 4af45e89288c8df5499704252eec3e032ee3d0c8           |
 | Date: Tue Aug 6 11:28:44 2024 +0100                           |
 | Working tree clean                                            |
 |                                                               |
 +---------------------------------------------------------------+
 |                                                               |
 |  Authors:                                                     |
 |  Jacek Dziedzic, Peter D. Haynes, Nicholas D. M. Hine,        |
 |  Arash A. Mostofi, Mike C. Payne and Chris-Kriton Skylaris    |
 |                                                               |
 |  Contributors:                                                |
 |  J. Aarons, L. Andrinopoulos, P. W. Avraam, R. A. Bell,       |
 |  A. Bhandari, G. A. Bramley, R. J. Charlton, S. J. Clark,     |
 |  R. J. Clements, G. C. Constantinescu, F. Corsetti,           |
 |  N. Corsini, O. Dieguez, S. M. M. Dubois, K. K. B. Duff,      |
 |  J. M. Escartin, M. Escobar Azor, A. Greco,                   |
 |  H. Helal, Q. O. Hill, L. P. Lee, J.-H. Li,                   |
 |  T. Li, E. B. Linscott, G. Moynihan, D. D. O`Regan,           |
 |  O. K. Okan, E. Parkinson, M. J. S. Phipps,                   |
 |  C. J. Pickard, J. C. A. Prentice, M. I. J. Probert,          |
 |  L. E. Ratcliff, M. Robinson, A. Ruiz Serrano,                |
 |  M. dos Santos Dias, J. S. Spencer, E. W. Tait,               |
 |  G. Teobaldi, D. Turban, V. Vitale, K. A. Wilkinson,          |
 |  C. Weber, J. C. Womack, Chengcheng Xiao, N. Yeung,           |
 |  and T. J. Zuehlsdorff.                                       |
 |                                                               |
 |                                   Copyright (c) 2004-2024     |
 |                                                               |
 |  Please cite:                                                 |
 |  "The ONETEP linear-scaling density functional theory program"|
 |   J. Chem. Phys. 152(17) 174111 (2020)                        |
 |                                                               |
 |          in all publications arising from your use of ONETEP. |
 |                                                               |
 +---------------------------------------------------------------+
 |                                                               |
 |   ONETEP is based on developments described in the following  |
 |   publications:                                               |
 |                                                               |
 |  "Nonorthogonal generalized Wannier function pseudopotential  |
 |   plane-wave method".                                         |
 |   C.-K. Skylaris, A. A. Mostofi, P. D. Haynes, O. Dieguez,    |
 |   M. C. Payne.                                                |
 |   Phys. Rev. B 66 035119 (2002).                              |
 |                                                               |
 |  "Preconditioned iterative minimization for linear-scaling    |
 |   electronic structure calculations".                         |
 |   A. A. Mostofi, P. D. Haynes, C.-K. Skylaris, M. C. Payne.   |
 |   J. Chem. Phys. 119(17), pp.8842-8848 (2003).                |
 |                                                               |
 |  "Total-energy calculations on a real space grid with         |
 |   localized functions and a plane-wave basis".                |
 |   A. A. Mostofi, C.-K. Skylaris, P. D. Haynes, M. C. Payne.   |
 |   Comput. Phys. Commun. 147, pp.788-802 (2002).               |
 |                                                               |
 |  "Accurate kinetic energy evaluation in electronic structure  |
 |   calculations with localized functions on real space grids"  |
 |   C.-K. Skylaris, A. A. Mostofi, P. D. Haynes, C. J. Pickard, |
 |   M. C. Payne.                                                |
 |   Comput. Phys. Commun. 140, pp.315-322 (2001).               |
 |                                                               |
 |  "Accurate ionic forces and geometry optimization in linear-  |
 |   scaling density-functional theory with local orbitals"      |
 |   N. D. M. Hine, M. Robinson, P. D. Haynes, C.-K. Skylaris,   |
 |   M. C. Payne, and A. A. Mostofi.                             |
 |   Phys. Rev. B 83 195102 (2011).                              |
 |                                                               |
 +---------------------------------------------------------------+

Job started: 29-03-2025 11:28 (+0000)
 
Reading parameters from file "Co_cluster3_sp_F_4P0.dat" ...... done

If your calculation crashes here, before "Checking processes and threads..."
is displayed, then your stack size is insufficient.
If so, use "ulimit -s unlimited" at runtime.
You can disable this check with "check_stack_size F".

Checking processes and threads...
   Running with 64 MPI processes.
   There are 16 MPI processes running on the same node as the root process.
   Each MPI process is using: 
               1 threads for simulation cell FFTs.
               1 threads for threaded FFT box operations.
               8 threads for loops over batched FFT box operations.
               8 threads in other parallel regions.
   MPI Interface: S1 (use mpi_f08) (-DMPI -DUSE_MPI_F08).
   MPI_ASYNC_PROTECTS_NONBLOCKING: Yes. MPI_SUBARRAYS_SUPPORTED: Yes.
   FFTW Interface: OMP-capable and MODERN. (-DUSE_MODERN_FFTW specified).
   GPU Interface: None.
   GPU FFT Backend: None.
... done

Basic input checks...
Resetting ngwf_cg_rotate to TRUE for EDFT calculations
... done

Reading geometry and species blocks from file "Co_cluster3_sp_F_4P0.dat" ...... done


--------------------------------------------------------------------------------
---------------------------------- INPUT FILE ----------------------------------
--------------------------------------------------------------------------------

charge : 0                                                                      
comms_group_size : 8                                                            
delta_e_conv : F                                                                
cutoff_energy : 600 eV                                                          
do_properties : T                                                               
edft : T                                                                        
edft_maxit : 15                                                                 
edft_spin_fix : 0                                                               
fine_grid_scale : 4                                                             
forces_output_detail : VERBOSE                                                  
maxit_ngwf_cg : 100                                                             
ngwf_threshold_orig : 1e-06                                                     
ngwfs_spin_polarized : F                                                        
output_detail : BRIEF                                                           
paw : T                                                                         
pseudo_path : ../../..                                                          
read_denskern : F                                                               
read_hamiltonian : F                                                            
read_tightbox_ngwfs : F                                                         
run_time : 86000                                                                
spin : 441                                                                      
task : SINGLEPOINT                                                              
write_denskern : T                                                              
write_forces : T                                                                
write_hamiltonian : T                                                           
write_tightbox_ngwfs : T                                                        
xc_functional : PBE                                                             
%BLOCK LATTICE_CART                                                             
ang                                                                             
22.70370017       0.00000000       0.00000000                                   
0.00000000      22.70370017       0.00000000                                    
0.00000000       0.00000000      22.70370017                                    
%ENDBLOCK LATTICE_CART                                                          
%BLOCK POSITIONS_ABS                                                            
ang                                                                             
Co1    11.35045      11.35071      11.35018                                     
Co2    13.31585      11.35141      10.13236                                     
Co2    13.31693      11.35148      12.57046                                     
Co2    9.38720      11.35203      10.13154                                      
Co2    9.38802      11.35215      12.57040                                      
Co2    10.13259      13.31604      11.35098                                     
Co2    12.57062      13.31703      11.35105                                     
Co2    10.13171      9.38733      11.35161                                      
Co2    12.57060      9.38820      11.35174                                      
Co2    11.35119      10.13271      13.31577                                     
Co2    11.35127      12.57086      13.31670                                     
Co2    11.35182      10.13196      9.38698                                      
Co2    11.35196      12.57073      9.38791                                      
Co3    15.36423      11.35216      8.86568                                      
Co3    15.39318      11.35223      11.35201                                     
Co3    15.36408      11.35215      13.83745                                     
Co3    7.33932      11.35215      8.86563                                       
Co3    7.31079      11.35227      11.35101                                      
Co3    7.33958      11.35214      13.83838                                      
Co3    8.86579      15.36427      11.35196                                      
Co3    11.35214      15.39313      11.35197                                     
Co3    13.83738      15.36391      11.35196                                     
Co3    8.86557      7.33915      11.35194                                       
Co3    11.35115      7.31074      11.35199                                      
Co3    13.83851      7.33957      11.35196                                      
Co3    11.35207      8.86569      15.36445                                      
Co3    11.35210      11.35227      15.39321                                     
Co3    11.35207      13.83760      15.36397                                     
Co3    11.35205      8.86578      7.33922                                       
Co3    11.35213      11.35129      7.31085                                      
Co3    11.35204      13.83840      7.33978                                      
Co3    13.37731      10.09606      14.63057                                     
Co3    13.37699      12.60821      14.63032                                     
Co3    13.37747      10.09550      8.07324                                      
Co3    13.37755      12.60859      8.07334                                      
Co3    9.32670      10.09564      14.63038                                      
Co3    9.32697      12.60848      14.63036                                      
Co3    9.32646      10.09480      8.07317                                       
Co3    9.32634      12.60913      8.07294                                       
Co3    14.63043      13.37725      10.09590                                     
Co3    14.63033      13.37704      12.60791                                     
Co3    8.07339      13.37758      10.09524                                      
Co3    8.07333      13.37776      12.60836                                      
Co3    14.63039      9.32691      10.09541                                      
Co3    14.63053      9.32706      12.60826                                      
Co3    8.07320      9.32653      10.09450                                       
Co3    8.07283      9.32632      12.60896                                       
Co3    10.09600      14.63062      13.37705                                     
Co3    12.60804      14.63044      13.37679                                     
Co3    10.09528      8.07327      13.37749                                      
Co3    12.60859      8.07326      13.37762                                      
Co3    10.09562      14.63033      9.32675                                      
Co3    12.60827      14.63037      9.32697                                      
Co3    10.09463      8.07329      9.32627                                       
Co3    12.60905      8.07299      9.32610                                       
Co4    17.34718      11.35182      7.64140                                      
Co4    17.40406      11.35187      10.10542                                     
Co4    17.40400      11.35186      12.59848                                     
Co4    17.34753      11.35182      15.06249                                     
Co4    5.35665      11.35176      7.64149                                       
Co4    5.29988      11.35185      10.10515                                      
Co4    5.30024      11.35182      12.59854                                      
Co4    5.35640      11.35177      15.06241                                      
Co4    7.64143      17.34705      11.35184                                      
Co4    10.10549      17.40388      11.35181                                     
Co4    12.59848      17.40376      11.35180                                     
Co4    15.06234      17.34728      11.35183                                     
Co4    7.64130      5.35635      11.35178                                       
Co4    10.10512      5.29963      11.35178                                      
Co4    12.59862      5.30007      11.35176                                      
Co4    15.06240      5.35632      11.35178                                      
Co4    11.35182      7.64113      17.34759                                      
Co4    11.35184      10.10546      17.40437                                     
Co4    11.35183      12.59859      17.40416                                     
Co4    11.35182      15.06244      17.34757                                     
Co4    11.35178      7.64141      5.35664                                       
Co4    11.35182      10.10525      5.30001                                      
Co4    11.35179      12.59858      5.30055                                      
Co4    11.35178      15.06212      5.35683                                      
Co4    15.38915      10.10067      15.87121                                     
Co4    13.37225      8.85204      16.64143                                      
Co4    15.38888      12.60319      15.87125                                     
Co4    13.39733      11.35210      16.70572                                     
Co4    13.37224      13.85176      16.64144                                     
Co4    15.38907      10.10091      6.83261                                      
Co4    13.37183      8.85196      6.06230                                       
Co4    15.38883      12.60292      6.83261                                      
Co4    13.39712      11.35198      5.99805                                      
Co4    13.37200      13.85181      6.06247                                      
Co4    7.31473      10.10053      15.87116                                      
Co4    9.33179      8.85178      16.64174                                       
Co4    7.31505      12.60326      15.87115                                      
Co4    9.30644      11.35205      16.70578                                      
Co4    9.33179      13.85194      16.64154                                      
Co4    7.31489      10.10081      6.83260                                       
Co4    9.33212      8.85157      6.06194                                        
Co4    7.31510      12.60299      6.83264                                       
Co4    9.30670      11.35193      5.99775                                       
Co4    9.33187      13.85213      6.06218                                       
Co4    15.87096      15.38892      10.10067                                     
Co4    16.64107      13.37211      8.85215                                      
Co4    15.87113      15.38878      12.60309                                     
Co4    16.70548      13.39728      11.35197                                     
Co4    16.64137      13.37225      13.85167                                     
Co4    6.83269      15.38903      10.10087                                      
Co4    6.06236      13.37182      8.85195                                       
Co4    6.83255      15.38893      12.60287                                      
Co4    5.99796      13.39722      11.35185                                      
Co4    6.06222      13.37215      13.85187                                      
Co4    15.87109      7.31482      10.10049                                      
Co4    16.64150      9.33195      8.85182                                       
Co4    15.87119      7.31503      12.60321                                      
Co4    16.70568      9.30654      11.35193                                      
Co4    16.64156      9.33181      13.85190                                      
Co4    6.83246      7.31477      10.10071                                       
Co4    6.06187      9.33213      8.85149                                        
Co4    6.83235      7.31483      12.60301                                       
Co4    5.99750      9.30665      11.35180                                       
Co4    6.06180      9.33172      13.85226                                       
Co4    10.10067      15.87108      15.38899                                     
Co4    8.85215      16.64111      13.37206                                      
Co4    12.60313      15.87118      15.38879                                     
Co4    11.35203      16.70547      13.39716                                     
Co4    13.85166      16.64128      13.37215                                     
Co4    10.10078      6.83231      15.38932                                      
Co4    8.85179      6.06198      13.37190                                       
Co4    12.60299      6.83225      15.38915                                      
Co4    11.35192      5.99762      13.39724                                      
Co4    13.85199      6.06202      13.37215                                      
Co4    10.10063      15.87078      7.31505                                      
Co4    8.85197      16.64127      9.33199                                       
Co4    12.60313      15.87083      7.31531                                      
Co4    11.35199      16.70535      9.30657                                      
Co4    13.85176      16.64123      9.33188                                      
Co4    10.10076      6.83252      7.31479                                       
Co4    8.85147      6.06177      9.33204                                        
Co4    12.60301      6.83249      7.31492                                       
Co4    11.35187      5.99749      9.30653                                       
Co4    13.85225      6.06185      9.33169                                       
Co4    14.66558      8.03819      14.66563                                      
Co4    14.66549      14.66554      14.66545                                     
Co4    14.66570      8.03833      8.03793                                       
Co4    14.66538      14.66532      8.03839                                      
Co4    8.03812      8.03787      14.66581                                       
Co4    8.03828      14.66559      14.66539                                      
Co4    8.03785      8.03789      8.03780                                        
Co4    8.03814      14.66558      8.03840                                       
%ENDBLOCK POSITIONS_ABS                                                         
%BLOCK SPECIES                                                                  
Co1 Co 27 -1 10.0                                                               
Co2 Co 27 -1 10.0                                                               
Co3 Co 27 -1 10.0                                                               
Co4 Co 27 -1 10.0                                                               
%ENDBLOCK SPECIES                                                               
%BLOCK SPECIES_ATOMIC_SET                                                       
Co1 "SOLVE INIT SPIN=3"                                                         
Co2 "SOLVE INIT SPIN=3"                                                         
Co3 "SOLVE INIT SPIN=3"                                                         
Co4 "SOLVE INIT SPIN=3"                                                         
%ENDBLOCK SPECIES_ATOMIC_SET                                                    
%BLOCK SPECIES_LDOS_GROUPS                                                      
Co1                                                                             
Co2                                                                             
Co3                                                                             
Co4                                                                             
%ENDBLOCK SPECIES_LDOS_GROUPS                                                   
%BLOCK SPECIES_POT                                                              
Co1 Co.PBE-paw.abinit                                                           
Co2 Co.PBE-paw.abinit                                                           
Co3 Co.PBE-paw.abinit                                                           
Co4 Co.PBE-paw.abinit                                                           
%ENDBLOCK SPECIES_POT                                                           

--------------------------------------------------------------------------------
-------------------------------- END INPUT FILE --------------------------------
--------------------------------------------------------------------------------


 
 ESDF WARNING(1): "charge" (esdf_physical) has no units. Assume "e".
<<<<<<<<<<<<<<<<<<<<<<<<<<<<<<<<< Full system >>>>>>>>>>>>>>>>>>>>>>>>>>>>>>>>>>
<<<<<<<<<<<<<<<<<<<<<<<<<<< PAW Dataset information >>>>>>>>>>>>>>>>>>>>>>>>>>>
File: Co.PBE-paw.abinit; rc = 2.11 bohr; shape type =  2; rshape = 1.60 bohr;
  Atomic number: 27;  ionic charge: 17.000000
    Partial Wave 1: l = 0
    Partial Wave 2: l = 0
    Partial Wave 3: l = 1
    Partial Wave 4: l = 1
    Partial Wave 5: l = 2
    Partial Wave 6: l = 2
  Core charge supplied for Nonlinear Core Corrections
<<<<<<<<<<<<<<<<<<<<<<<<<<<<<<<<<<<<<<< >>>>>>>>>>>>>>>>>>>>>>>>>>>>>>>>>>>>>>>

-------------------------- Atom counting information ---------------------------
Symbol    Natoms    Nngwfs    Nprojs
  Co       147      1911      2646
.......   ......    ......    ......
Totals:    147      1911      2646
--------------------------------------------------------------------------------

=============================== PSINC grid sizes ===============================
                      Simulation cell:   75 x  75 x  75
                              FFT-box:   75 x  75 x  75
                                  PPD:    5 x   5 x   1
================================================================================

Atom SCF Calculation for Co : Z (AE atom) =  27 : Z (PS atom) =  17
Config String: 3s2.0 3p6.0 3d7.0 4s2.0 4p0.0 INIT SPIN=3
Orbitals (num,occ):  5     2.00 6.00 7.00 2.00 0.00
Orbitals   (num,l):  5        0    1    2    0    1
Atom SCF converged after  37 iterations to a total energy of   -146.10251041
Adjusting orbital occupancies:
Orbitals (num,spin,occ):  5  1     1.00 3.00 5.00 1.00 0.00
Orbitals   (num,spin,l):  5  1        0    1    2    0    1
Orbitals (num,spin,occ):  5  2     1.00 3.00 3.00 0.00 0.00
Orbitals   (num,spin,l):  5  2        0    1    2    0    1

Atom SCF Calculation for Co : Z (AE atom) =  27 : Z (PS atom) =  17
Config String: 3s2.0 3p6.0 3d7.0 4s2.0 4p0.0 INIT SPIN=3
Orbitals (num,occ):  5     2.00 6.00 7.00 2.00 0.00
Orbitals   (num,l):  5        0    1    2    0    1
Atom SCF converged after  37 iterations to a total energy of   -146.10251041
Adjusting orbital occupancies:
Orbitals (num,spin,occ):  5  1     1.00 3.00 5.00 1.00 0.00
Orbitals   (num,spin,l):  5  1        0    1    2    0    1
Orbitals (num,spin,occ):  5  2     1.00 3.00 3.00 0.00 0.00
Orbitals   (num,spin,l):  5  2        0    1    2    0    1

Atom SCF Calculation for Co : Z (AE atom) =  27 : Z (PS atom) =  17
Config String: 3s2.0 3p6.0 3d7.0 4s2.0 4p0.0 INIT SPIN=3
Orbitals (num,occ):  5     2.00 6.00 7.00 2.00 0.00
Orbitals   (num,l):  5        0    1    2    0    1
Atom SCF converged after  37 iterations to a total energy of   -146.10251041
Adjusting orbital occupancies:
Orbitals (num,spin,occ):  5  1     1.00 3.00 5.00 1.00 0.00
Orbitals   (num,spin,l):  5  1        0    1    2    0    1
Orbitals (num,spin,occ):  5  2     1.00 3.00 3.00 0.00 0.00
Orbitals   (num,spin,l):  5  2        0    1    2    0    1

Atom SCF Calculation for Co : Z (AE atom) =  27 : Z (PS atom) =  17
Config String: 3s2.0 3p6.0 3d7.0 4s2.0 4p0.0 INIT SPIN=3
Orbitals (num,occ):  5     2.00 6.00 7.00 2.00 0.00
Orbitals   (num,l):  5        0    1    2    0    1
Atom SCF converged after  37 iterations to a total energy of   -146.10251041
Adjusting orbital occupancies:
Orbitals (num,spin,occ):  5  1     1.00 3.00 5.00 1.00 0.00
Orbitals   (num,spin,l):  5  1        0    1    2    0    1
Orbitals (num,spin,occ):  5  2     1.00 3.00 3.00 0.00 0.00
Orbitals   (num,spin,l):  5  2        0    1    2    0    1
Calculating Ewald energy ...            78207.501337 Hartree

============================= Charge Augmentation ==============================
                           Aug box size:   33 x  33 x  33
================================================================================

================================= Core Density =================================
               Core den box size:   33 x  33 x  33
================================================================================
Density kernel initialisation

################################################################################
###################### NGWF self-consistent optimisation #######################
################################################################################
|ITER|    RMS GRADIENT   |     TOTAL ENERGY    |   step   |     Epredicted      
   0     0.00042915550094 -21511.92696666773190   0.546125 -21514.07745821570640        
   1     0.00030041864286 -21515.22235186718540   0.503102 -21516.07017828456080        
   2     0.00018544928424 -21516.61513723845560   0.602380 -21517.01596803437500        
   3     0.00011140397318 -21517.22400011083300   0.454621 -21517.31667803104210        
   4     0.00006874667747 -21517.46836917371180   0.371098 -21517.50586717035550        
   5     0.00003863297772 -21517.54821499011810   0.736972 -21517.57354742445750        
   6     0.00003797900390 -21517.60105772246970   1.161160 -21517.62929210264700        
   7     0.00005087858162 -21517.60883285199450   0.390892 -21517.63046717781250        
   8     0.00002965922177 -21517.63501852775150   0.748636 -21517.64938823126790        
   9     0.00002172239546 -21517.64721622775320   0.303139 -21517.64926704489330        
  10     0.00000652568303 -21517.65125852102570   0.161400 -21517.65140744921880        
  11     0.00000550191475 -21517.65284798993530   0.276766 -21517.65302711542240        
  12     0.00000774649301 -21517.65354886225760   0.073485 -21517.65368464394120        
  13     0.00000436717498 -21517.65368126685280   0.172977 -21517.65375180198680        
  14     0.00000597080688 -21517.65373427434680   0.050869 -21517.65379042672790        
  15     0.00000373169599 -21517.65378119999880   0.123325 -21517.65381791801700        
  16     0.00000498482074 -21517.65381466626060   0.038553 -21517.65384418142280        
  17     0.00000326027730 -21517.65384575906500   0.091902 -21517.65386664482870        
  18     0.00000426883806 -21517.65387028439360   0.030023 -21517.65388697905660        
  19     0.00000287872158 -21517.65389372732530   0.069858 -21517.65390610472240        
  20     0.00000369665620 -21517.65391344272580   0.023672 -21517.65392317902660        
  21     0.00000255436575 -21517.65393261403730   0.053486 -21517.65394007545550        
  22     0.00000321299396 -21517.65394948088210   0.018748 -21517.65395520055240        
  23     0.00000227009061 -21517.65396605146090   0.040906 -21517.65397055844370        
  24     0.00000278881176 -21517.65398110862590   0.014842 -21517.65398443849340        
  25     0.00000201618207 -21517.65399599568630   0.031040 -21517.65399869342950        
  26     0.00000240678597 -21517.65400983334980   0.011702 -21517.65401172710700        
  27     0.00000178686896 -21517.65402357346470   0.023222 -21517.65402515869940        
  28     0.00000205574124 -21517.65403654232070   0.009168 -21517.65403757901730        
  29     0.00000157922577 -21517.65404946264970   0.017029 -21517.65405037066740        
  30     0.00000172923982 -21517.65406177779730   0.007138 -21517.65406231641100        
  31     0.00000139383236 -21517.65407408530520   0.012214 -21517.65407459264680        
  32     0.00000142622139 -21517.65408588402720   0.005564 -21517.65408614788610        
  33     0.00000123682095 -21517.65409771432680   0.008656 -21517.65409799742700        
  34     0.00000115339021 -21517.65410908971530   0.004458 -21517.65410921444710        
  35     0.00000112402838 -21517.65412053540420   0.000004 -21517.65412053540420        
  36     0.00000105182543 -21517.65413144364720   0.000694 -21517.65413146005810        

================================================================================
           ---------------- ENERGY COMPONENTS (Eh) ----------------
           | Kinetic                    :     1727.04978880668614 |
           | Core Hartree               :  -200775.06970650010000 |
           | CoreHart (non-coul chg cor):        0.00000000000000
           | Hartree                    :    96015.95040279098610 |
           | Exchange-correlation       :     -457.74914772295199 |
           | Ewald                      :    78207.50133679358990 |
           | Dij0                       :     4720.30869382126730 |
           | Dijhartree                 :     1189.06254133002062 |
           | Exc [AE core]              :    -8691.54544271423038 |
           | Exc DC [AE core]           :    -3111.33209830287979 |
           | Exc [PS core]              :     -380.37284087998148 |
           | Exc DC [PS core]           :     -498.70877453591777 |
           | Exc [Core]                 :    -6166.64466538663874 |
           | Total [Sphere]             :     3764.84329870367765 |
           | Total                      :   -21517.47402712811890 |
           |------------------------------------------------------|
           | Entropic contribution      :       -0.18011529104479 |
           | Total free energy          :   -21517.65414241916370 |
           --------------------------------------------------------
           Integrated compensation chrg.:     1474.17825307283556
           Integrated density           :     2499.00000000031469
           Integrated spin density      :      254.26161095008229
           Integrated |spin density|    :       75.70529098533655
           Fermi level of spin Up       :       -0.03759116977685
           Fermi level of spin Down     :       -0.03759116977685
================================================================================

  37     0.00000093269217 -21517.65414241916370  <-- CG                                 

======================== Writing density and potential =========================
Writing "Co_cluster3_sp_F_4P0_ps_density.cube" ... done
Writing "Co_cluster3_sp_F_4P0_ps_spindensity.cube" ... done
Writing "Co_cluster3_sp_F_4P0_ae_density.cube" ... done
Writing "Co_cluster3_sp_F_4P0_ae_spindensity.cube" ... done
Writing "Co_cluster3_sp_F_4P0_potential.cube" ... done
Writing "Co_cluster3_sp_F_4P0_electrostatic_potential.cube" ... done
================================================================================

    Mulliken Atomic Populations
    ---------------------------
Species  Ion    Total   Charge (e)    Spin (hbar)
=================================================
  Co     1      17.314     -0.314      0.57
  Co     2      17.044     -0.044      0.74
  Co     3      17.045     -0.045      0.74
  Co     4      17.044     -0.044      0.74
  Co     5      17.044     -0.044      0.74
  Co     6      17.044     -0.044      0.74
  Co     7      17.045     -0.045      0.74
  Co     8      17.044     -0.044      0.74
  Co     9      17.044     -0.044      0.74
  Co    10      17.044     -0.044      0.74
  Co    11      17.045     -0.045      0.74
  Co    12      17.044     -0.044      0.74
  Co    13      17.044     -0.044      0.74
  Co    14      17.268     -0.268      0.80
  Co    15      17.101     -0.101      0.82
  Co    16      17.268     -0.268      0.80
  Co    17      17.267     -0.267      0.80
  Co    18      17.100     -0.100      0.82
  Co    19      17.268     -0.268      0.80
  Co    20      17.268     -0.268      0.80
  Co    21      17.101     -0.101      0.82
  Co    22      17.268     -0.268      0.80
  Co    23      17.267     -0.267      0.80
  Co    24      17.100     -0.100      0.82
  Co    25      17.268     -0.268      0.80
  Co    26      17.268     -0.268      0.80
  Co    27      17.101     -0.101      0.82
  Co    28      17.268     -0.268      0.80
  Co    29      17.267     -0.267      0.80
  Co    30      17.100     -0.100      0.82
  Co    31      17.268     -0.268      0.80
  Co    32      17.101     -0.101      0.82
  Co    33      17.101     -0.101      0.82
  Co    34      17.100     -0.100      0.82
  Co    35      17.100     -0.100      0.82
  Co    36      17.100     -0.100      0.82
  Co    37      17.101     -0.101      0.82
  Co    38      17.100     -0.100      0.82
  Co    39      17.100     -0.100      0.82
  Co    40      17.101     -0.101      0.82
  Co    41      17.101     -0.101      0.82
  Co    42      17.100     -0.100      0.82
  Co    43      17.100     -0.100      0.82
  Co    44      17.100     -0.100      0.82
  Co    45      17.101     -0.101      0.82
  Co    46      17.100     -0.100      0.82
  Co    47      17.100     -0.100      0.82
  Co    48      17.101     -0.101      0.82
  Co    49      17.101     -0.101      0.82
  Co    50      17.100     -0.100      0.82
  Co    51      17.100     -0.100      0.82
  Co    52      17.100     -0.100      0.82
  Co    53      17.101     -0.101      0.82
  Co    54      17.100     -0.100      0.82
  Co    55      17.100     -0.100      0.82
  Co    56      16.757      0.243      1.02
  Co    57      16.938      0.062      0.90
  Co    58      16.938      0.062      0.90
  Co    59      16.757      0.243      1.02
  Co    60      16.757      0.243      1.02
  Co    61      16.938      0.062      0.90
  Co    62      16.938      0.062      0.90
  Co    63      16.757      0.243      1.02
  Co    64      16.757      0.243      1.02
  Co    65      16.938      0.062      0.90
  Co    66      16.938      0.062      0.90
  Co    67      16.757      0.243      1.02
  Co    68      16.757      0.243      1.02
  Co    69      16.938      0.062      0.90
  Co    70      16.938      0.062      0.90
  Co    71      16.757      0.243      1.02
  Co    72      16.757      0.243      1.02
  Co    73      16.938      0.062      0.90
  Co    74      16.938      0.062      0.90
  Co    75      16.757      0.243      1.02
  Co    76      16.757      0.243      1.02
  Co    77      16.938      0.062      0.90
  Co    78      16.938      0.062      0.90
  Co    79      16.757      0.243      1.02
  Co    80      16.934      0.066      0.91
  Co    81      16.938      0.062      0.91
  Co    82      16.934      0.066      0.91
  Co    83      16.987      0.013      0.85
  Co    84      16.938      0.062      0.91
  Co    85      16.934      0.066      0.91
  Co    86      16.938      0.062      0.91
  Co    87      16.934      0.066      0.91
  Co    88      16.986      0.014      0.85
  Co    89      16.938      0.062      0.91
  Co    90      16.934      0.066      0.91
  Co    91      16.938      0.062      0.91
  Co    92      16.934      0.066      0.91
  Co    93      16.986      0.014      0.85
  Co    94      16.938      0.062      0.91
  Co    95      16.934      0.066      0.91
  Co    96      16.938      0.062      0.91
  Co    97      16.934      0.066      0.91
  Co    98      16.986      0.014      0.85
  Co    99      16.938      0.062      0.91
  Co   100      16.934      0.066      0.91
  Co   101      16.938      0.062      0.91
  Co   102      16.934      0.066      0.91
  Co   103      16.987      0.013      0.85
  Co   104      16.938      0.062      0.91
  Co   105      16.934      0.066      0.91
  Co   106      16.938      0.062      0.91
  Co   107      16.934      0.066      0.91
  Co   108      16.986      0.014      0.85
  Co   109      16.938      0.062      0.91
  Co   110      16.934      0.066      0.91
  Co   111      16.938      0.062      0.91
  Co   112      16.934      0.066      0.91
  Co   113      16.986      0.014      0.85
  Co   114      16.938      0.062      0.91
  Co   115      16.934      0.066      0.91
  Co   116      16.938      0.062      0.91
  Co   117      16.934      0.066      0.91
  Co   118      16.986      0.014      0.85
  Co   119      16.938      0.062      0.91
  Co   120      16.934      0.066      0.91
  Co   121      16.938      0.062      0.91
  Co   122      16.934      0.066      0.91
  Co   123      16.987      0.013      0.85
  Co   124      16.938      0.062      0.91
  Co   125      16.934      0.066      0.91
  Co   126      16.938      0.062      0.91
  Co   127      16.934      0.066      0.91
  Co   128      16.986      0.014      0.85
  Co   129      16.938      0.062      0.91
  Co   130      16.934      0.066      0.91
  Co   131      16.938      0.062      0.91
  Co   132      16.934      0.066      0.91
  Co   133      16.986      0.014      0.85
  Co   134      16.938      0.062      0.91
  Co   135      16.934      0.066      0.91
  Co   136      16.938      0.062      0.91
  Co   137      16.934      0.066      0.91
  Co   138      16.986      0.014      0.85
  Co   139      16.938      0.062      0.91
  Co   140      16.978      0.022      0.85
  Co   141      16.979      0.021      0.85
  Co   142      16.978      0.022      0.85
  Co   143      16.978      0.022      0.85
  Co   144      16.978      0.022      0.85
  Co   145      16.978      0.022      0.85
  Co   146      16.978      0.022      0.85
  Co   147      16.978      0.022      0.85
=================================================

        Bond         Population      Spin       Length (bohr)
=============================================================
 Co    1 -- Co   13        0.00      0.00      4.36643
 Co    1 -- Co    4        0.00      0.00      4.36663
 Co    1 -- Co   12        0.00      0.00      4.36666
 Co    1 -- Co    5        0.00      0.00      4.36689
 Co    1 -- Co    8        0.00      0.00      4.36694
 Co    1 -- Co    9        0.00      0.00      4.36695
 Co    1 -- Co    6        0.00      0.00      4.36919
 Co    1 -- Co    2        0.00      0.00      4.36927
 Co    1 -- Co   10        0.00      0.00      4.36975
 Co    1 -- Co    7        0.00      0.00      4.37309
 Co    1 -- Co   11        0.00      0.00      4.37339
 Co    1 -- Co    3        0.00      0.00      4.37345
 Co   17 -- Co   60       -0.15      0.06      4.40330
 Co   31 -- Co   79       -0.15      0.06      4.40334
 Co   29 -- Co   76       -0.15      0.06      4.40339
 Co   23 -- Co   68       -0.15      0.06      4.40364
 Co   20 -- Co   64       -0.15      0.06      4.40370
 Co   14 -- Co   56       -0.15      0.06      4.40389
 Co   25 -- Co   71       -0.15      0.06      4.40399
 Co   19 -- Co   63       -0.15      0.06      4.40402
 Co   26 -- Co   72       -0.15      0.06      4.40448
 Co   22 -- Co   67       -0.15      0.06      4.40524
 Co   16 -- Co   59       -0.15      0.06      4.40545
 Co   28 -- Co   75       -0.15      0.06      4.40550
 Co   39 -- Co   97       -0.06      0.04      4.46530
 Co   55 -- Co  137       -0.06      0.04      4.46540
 Co   43 -- Co  107       -0.06      0.04      4.46566
 Co   35 -- Co   87       -0.06      0.04      4.46579
 Co   47 -- Co  117       -0.06      0.04      4.46588
 Co   42 -- Co  105       -0.06      0.04      4.46603
 Co   38 -- Co   95       -0.06      0.04      4.46610
 Co   53 -- Co  132       -0.06      0.04      4.46613
 Co   54 -- Co  135       -0.06      0.04      4.46615
 Co   52 -- Co  130       -0.06      0.04      4.46619
 Co   34 -- Co   85       -0.06      0.04      4.46621
 Co   40 -- Co  100       -0.06      0.04      4.46622
 Co   51 -- Co  127       -0.06      0.04      4.46647
 Co   46 -- Co  115       -0.06      0.04      4.46658
 Co   48 -- Co  120       -0.06      0.04      4.46658
 Co   41 -- Co  102       -0.06      0.04      4.46660
 Co   32 -- Co   80       -0.06      0.04      4.46660
 Co   37 -- Co   92       -0.06      0.04      4.46688
 Co   50 -- Co  125       -0.06      0.04      4.46690
 Co   45 -- Co  112       -0.06      0.04      4.46693
 Co   36 -- Co   90       -0.06      0.04      4.46695
 Co   49 -- Co  122       -0.06      0.04      4.46696
 Co   33 -- Co   82       -0.06      0.04      4.46697
 Co   44 -- Co  110       -0.06      0.04      4.46706
 Co   39 -- Co   99       -0.05      0.04      4.46721
 Co   35 -- Co   89       -0.05      0.04      4.46760
 Co   48 -- Co  121       -0.05      0.04      4.46762
 Co   40 -- Co  101       -0.05      0.04      4.46776
 Co   53 -- Co  134       -0.05      0.04      4.46785
 Co   42 -- Co  106       -0.05      0.04      4.46793
 Co   47 -- Co  119       -0.05      0.04      4.46794
 Co   49 -- Co  124       -0.05      0.04      4.46795
 Co   55 -- Co  139       -0.05      0.04      4.46802
 Co   34 -- Co   86       -0.05      0.04      4.46803
 Co   46 -- Co  116       -0.05      0.04      4.46813
 Co   52 -- Co  131       -0.05      0.04      4.46814
 Co   38 -- Co   96       -0.05      0.04      4.46819
 Co   45 -- Co  114       -0.05      0.04      4.46828
 Co   43 -- Co  109       -0.05      0.04      4.46828
 Co   33 -- Co   84       -0.05      0.04      4.46833
 Co   37 -- Co   94       -0.05      0.04      4.46834
 Co   44 -- Co  111       -0.05      0.04      4.46836
 Co   51 -- Co  129       -0.05      0.04      4.46838
 Co   32 -- Co   81       -0.05      0.04      4.46838
 Co   41 -- Co  104       -0.05      0.04      4.46841
 Co   50 -- Co  126       -0.05      0.04      4.46855
 Co   54 -- Co  136       -0.05      0.04      4.46859
 Co   36 -- Co   91       -0.05      0.04      4.46903
 Co   18 -- Co   61       -0.06      0.04      4.47028
 Co   21 -- Co   66       -0.06      0.04      4.47031
 Co   30 -- Co   77       -0.06      0.04      4.47035
 Co   30 -- Co   78       -0.06      0.04      4.47073
 Co   15 -- Co   58       -0.06      0.04      4.47074
 Co   24 -- Co   69       -0.06      0.04      4.47077
 Co   27 -- Co   74       -0.06      0.04      4.47080
 Co   21 -- Co   65       -0.06      0.04      4.47081
 Co   15 -- Co   57       -0.06      0.04      4.47096
 Co   18 -- Co   62       -0.06      0.04      4.47137
 Co   24 -- Co   70       -0.06      0.04      4.47150
 Co   27 -- Co   73       -0.06      0.04      4.47163
 Co   29 -- Co   77        0.01      0.02      4.50955
 Co   31 -- Co   78        0.01      0.02      4.50992
 Co   17 -- Co   61        0.01      0.02      4.50997
 Co   22 -- Co   66        0.01      0.02      4.51002
 Co   19 -- Co   62        0.01      0.02      4.51012
 Co   23 -- Co   69        0.01      0.02      4.51013
 Co   16 -- Co   58        0.01      0.02      4.51020
 Co   31 -- Co  132        0.01      0.02      4.51031
 Co   20 -- Co   65        0.01      0.02      4.51042
 Co   25 -- Co   70        0.01      0.02      4.51043
 Co   31 -- Co  130        0.01      0.02      4.51055
 Co   28 -- Co   74        0.01      0.02      4.51068
 Co   14 -- Co   57        0.01      0.02      4.51081
 Co   25 -- Co  112        0.01      0.02      4.51087
 Co   19 -- Co   92        0.01      0.02      4.51089
 Co   25 -- Co  110        0.01      0.02      4.51094
 Co   17 -- Co   97        0.01      0.02      4.51096
 Co   26 -- Co   73        0.01      0.02      4.51099
 Co   14 -- Co   87        0.01      0.02      4.51102
 Co   20 -- Co  105        0.01      0.02      4.51140
 Co   19 -- Co   90        0.01      0.02      4.51140
 Co   20 -- Co  107        0.01      0.02      4.51144
 Co   14 -- Co   85        0.01      0.02      4.51151
 Co   17 -- Co   95        0.01      0.02      4.51152
 Co   23 -- Co  115        0.01      0.02      4.51154
 Co   23 -- Co  117        0.01      0.02      4.51156
 Co   29 -- Co  137        0.01      0.02      4.51156
 Co   26 -- Co  127        0.01      0.02      4.51177
 Co   29 -- Co  135        0.01      0.02      4.51185
 Co   26 -- Co  125        0.01      0.02      4.51205
 Co   28 -- Co  122        0.01      0.02      4.51214
 Co   28 -- Co  120        0.01      0.02      4.51232
 Co   22 -- Co  100        0.01      0.02      4.51237
 Co   16 -- Co   82        0.01      0.02      4.51247
 Co   22 -- Co  102        0.01      0.02      4.51248
 Co   16 -- Co   80        0.01      0.02      4.51285
 Co   17 -- Co  106        0.00      0.02      4.51557
 Co   29 -- Co   86        0.00      0.02      4.51570
 Co   14 -- Co  101        0.00      0.02      4.51589
 Co   20 -- Co  131        0.00      0.02      4.51609
 Co   20 -- Co  121        0.00      0.02      4.51613
 Co   23 -- Co  126        0.00      0.02      4.51624
 Co   29 -- Co   96        0.00      0.02      4.51631
 Co   23 -- Co  136        0.00      0.02      4.51636
 Co   31 -- Co   89        0.00      0.02      4.51638
 Co   26 -- Co   81        0.00      0.02      4.51640
 Co   19 -- Co  109        0.00      0.02      4.51651
 Co   16 -- Co  104        0.00      0.02      4.51659
 Co   22 -- Co  134        0.00      0.02      4.51659
 Co   17 -- Co  116        0.00      0.02      4.51663
 Co   14 -- Co  111        0.00      0.02      4.51675
 Co   22 -- Co  124        0.00      0.02      4.51682
 Co   26 -- Co   91        0.00      0.02      4.51688
 Co   28 -- Co   84        0.00      0.02      4.51689
 Co   25 -- Co  129        0.00      0.02      4.51699
 Co   31 -- Co   99        0.00      0.02      4.51701
 Co   28 -- Co   94        0.00      0.02      4.51717
 Co   16 -- Co  114        0.00      0.02      4.51717
 Co   25 -- Co  139        0.00      0.02      4.51729
 Co   19 -- Co  119        0.00      0.02      4.51760
 Co    7 -- Co   22       -0.01      0.01      4.54887
 Co    7 -- Co   21        0.08     -0.00      4.54906
 Co    3 -- Co   15        0.08     -0.00      4.54927
 Co   11 -- Co   28       -0.01      0.01      4.54947
 Co    3 -- Co   16       -0.01      0.01      4.54953
 Co    4 -- Co   17       -0.01      0.01      4.54963
 Co   12 -- Co   29       -0.01      0.01      4.54970
 Co   11 -- Co   27        0.08     -0.00      4.54983
 Co   12 -- Co   30        0.08     -0.00      4.54992
 Co    8 -- Co   23       -0.01      0.01      4.55034
 Co    4 -- Co   18        0.08     -0.00      4.55051
 Co    8 -- Co   24        0.08     -0.00      4.55077
 Co    6 -- Co   20       -0.01      0.01      4.55107
 Co    2 -- Co   14       -0.01      0.01      4.55120
 Co   13 -- Co   30        0.08     -0.00      4.55154
 Co    6 -- Co   21        0.08     -0.00      4.55169
 Co    5 -- Co   18        0.08     -0.00      4.55177
 Co   13 -- Co   31       -0.01      0.01      4.55178
 Co   10 -- Co   26       -0.01      0.01      4.55202
 Co    2 -- Co   15        0.08     -0.00      4.55218
 Co    9 -- Co   24        0.08     -0.00      4.55220
 Co   10 -- Co   27        0.08     -0.00      4.55227
 Co    5 -- Co   19       -0.01      0.01      4.55259
 Co    9 -- Co   25       -0.01      0.01      4.55282
 Co    6 -- Co   42        0.08     -0.00      4.55928
 Co    2 -- Co   34        0.08     -0.00      4.55933
 Co    4 -- Co   38        0.08     -0.00      4.55937
 Co    8 -- Co   46        0.08     -0.00      4.55948
 Co    4 -- Co   39        0.08     -0.00      4.55962
 Co    7 -- Co   40        0.08     -0.00      4.55963
 Co   11 -- Co   48        0.08     -0.00      4.55967
 Co   12 -- Co   54        0.08     -0.00      4.55982
 Co   10 -- Co   50        0.08     -0.00      4.55985
 Co    7 -- Co   53        0.07     -0.00      4.56015
 Co    8 -- Co   47        0.08     -0.00      4.56033
 Co   12 -- Co   55        0.08     -0.00      4.56035
 Co    3 -- Co   32        0.08     -0.00      4.56038
 Co    2 -- Co   35        0.08     -0.00      4.56042
 Co   13 -- Co   52        0.08     -0.00      4.56050
 Co   13 -- Co   53        0.08     -0.00      4.56053
 Co    9 -- Co   44        0.08     -0.00      4.56080
 Co   11 -- Co   37        0.07     -0.00      4.56083
 Co   11 -- Co   49        0.08     -0.00      4.56084
 Co    3 -- Co   45        0.07     -0.00      4.56096
 Co    6 -- Co   43        0.08     -0.00      4.56100
 Co    5 -- Co   37        0.08     -0.00      4.56107
 Co    7 -- Co   41        0.08     -0.00      4.56114
 Co    9 -- Co   45        0.08     -0.00      4.56121
 Co    3 -- Co   33        0.08     -0.00      4.56125
 Co    5 -- Co   36        0.08     -0.00      4.56129
 Co   10 -- Co   51        0.08     -0.00      4.56134
 Co    6 -- Co   52        0.07     -0.00      4.56134
 Co    2 -- Co   44        0.07     -0.00      4.56203
 Co   10 -- Co   36        0.07     -0.00      4.56209
 Co    3 -- Co   41        0.07     -0.00      4.56255
 Co   12 -- Co   38        0.07     -0.00      4.56265
 Co    7 -- Co   49        0.07     -0.00      4.56284
 Co    8 -- Co   54        0.07     -0.00      4.56285
 Co    4 -- Co   42        0.07     -0.00      4.56292
 Co   12 -- Co   34        0.07     -0.00      4.56301
 Co   11 -- Co   33        0.07     -0.00      4.56303
 Co    4 -- Co   46        0.07     -0.00      4.56306
 Co    8 -- Co   50        0.07     -0.00      4.56371
 Co   13 -- Co   35        0.07     -0.00      4.56381
 Co    5 -- Co   43        0.07     -0.00      4.56397
 Co    2 -- Co   40        0.07     -0.00      4.56418
 Co   13 -- Co   39        0.07     -0.00      4.56429
 Co    6 -- Co   48        0.07     -0.00      4.56455
 Co    9 -- Co   55        0.07     -0.00      4.56457
 Co    9 -- Co   51        0.07     -0.00      4.56466
 Co    5 -- Co   47        0.07     -0.00      4.56485
 Co   10 -- Co   32        0.07     -0.00      4.56485
 Co   48 -- Co  123        0.01      0.02      4.58352
 Co   49 -- Co  123        0.01      0.02      4.58379
 Co   40 -- Co  103        0.01      0.02      4.58388
 Co   41 -- Co  103        0.01      0.02      4.58392
 Co   53 -- Co  133        0.01      0.02      4.58398
 Co   32 -- Co   83        0.01      0.02      4.58401
 Co   52 -- Co  133        0.01      0.02      4.58413
 Co   45 -- Co  113        0.01      0.02      4.58430
 Co   33 -- Co   83        0.01      0.02      4.58449
 Co   34 -- Co   88        0.01      0.02      4.58450
 Co   44 -- Co  113        0.01      0.02      4.58471
 Co   36 -- Co   93        0.01      0.02      4.58478
 Co   35 -- Co   88        0.01      0.02      4.58479
 Co   43 -- Co  108        0.01      0.02      4.58482
 Co   37 -- Co   93        0.01      0.02      4.58484
 Co   42 -- Co  108        0.01      0.02      4.58502
 Co   39 -- Co   98        0.01      0.02      4.58521
 Co   47 -- Co  118        0.01      0.02      4.58539
 Co   50 -- Co  128        0.01      0.02      4.58540
 Co   51 -- Co  128        0.01      0.02      4.58541
 Co   38 -- Co   98        0.01      0.02      4.58551
 Co   55 -- Co  138        0.01      0.02      4.58569
 Co   39 -- Co  147       -0.00      0.02      4.58610
 Co   46 -- Co  118        0.01      0.02      4.58613
 Co   35 -- Co  143       -0.00      0.02      4.58619
 Co   54 -- Co  138        0.01      0.02      4.58623
 Co   55 -- Co  142       -0.00      0.02      4.58639
 Co   42 -- Co  147       -0.00      0.02      4.58654
 Co   43 -- Co  145       -0.00      0.02      4.58667
 Co   51 -- Co  140       -0.00      0.02      4.58679
 Co   54 -- Co  146       -0.00      0.02      4.58692
 Co   46 -- Co  146       -0.00      0.02      4.58696
 Co   47 -- Co  144       -0.00      0.02      4.58699
 Co   38 -- Co  146       -0.00      0.02      4.58727
 Co   34 -- Co  142       -0.00      0.02      4.58730
 Co   50 -- Co  144       -0.00      0.02      4.58738
 Co   53 -- Co  143       -0.00      0.02      4.58755
 Co   37 -- Co  145       -0.00      0.02      4.58766
 Co   40 -- Co  143       -0.00      0.02      4.58767
 Co   33 -- Co  141       -0.00      0.02      4.58782
 Co   52 -- Co  147       -0.00      0.02      4.58792
 Co   44 -- Co  142       -0.00      0.02      4.58815
 Co   41 -- Co  141       -0.00      0.02      4.58816
 Co   49 -- Co  141       -0.00      0.02      4.58817
 Co   45 -- Co  140       -0.00      0.02      4.58826
 Co   48 -- Co  145       -0.00      0.02      4.58828
 Co   32 -- Co  140       -0.00      0.02      4.58845
 Co    6 -- Co   13        0.06     -0.00      4.58857
 Co    7 -- Co   13        0.06     -0.00      4.58858
 Co   36 -- Co  144       -0.00      0.02      4.58862
 Co    2 -- Co    9        0.06     -0.00      4.58876
 Co    5 -- Co   11        0.06     -0.00      4.58879
 Co    5 -- Co   10        0.06     -0.00      4.58882
 Co    3 -- Co    9        0.06     -0.00      4.58887
 Co    2 -- Co   13        0.06     -0.00      4.58928
 Co    5 -- Co    6        0.06     -0.00      4.58944
 Co    4 -- Co   13        0.06     -0.00      4.58954
 Co    9 -- Co   10        0.06     -0.00      4.58961
 Co    9 -- Co   12        0.06     -0.00      4.58970
 Co    5 -- Co    8        0.06     -0.00      4.58976
 Co    4 -- Co    6        0.06     -0.00      4.59012
 Co    2 -- Co   12        0.06     -0.00      4.59015
 Co    8 -- Co   10        0.06     -0.00      4.59038
 Co    4 -- Co   12        0.06     -0.00      4.59117
 Co    4 -- Co    8        0.06     -0.00      4.59126
 Co    8 -- Co   12        0.06     -0.00      4.59126
 Co    2 -- Co    7        0.06     -0.00      4.59178
 Co   15 -- Co  103       -0.01      0.02      4.59182
 Co    6 -- Co   11        0.06     -0.00      4.59189
 Co    3 -- Co   10        0.06     -0.00      4.59208
 Co   21 -- Co  123       -0.01      0.02      4.59209
 Co   18 -- Co  108       -0.01      0.02      4.59221
 Co   30 -- Co   88       -0.01      0.02      4.59224
 Co   21 -- Co  133       -0.01      0.02      4.59230
 Co   27 -- Co   83       -0.01      0.02      4.59233
 Co    3 -- Co    7        0.06     -0.01      4.59298
 Co   24 -- Co  128       -0.01      0.02      4.59298
 Co    7 -- Co   11        0.06     -0.01      4.59299
 Co   15 -- Co  113       -0.01      0.02      4.59305
 Co   27 -- Co   93       -0.01      0.02      4.59307
 Co    3 -- Co   11        0.06     -0.01      4.59308
 Co   30 -- Co   98       -0.01      0.02      4.59325
 Co   24 -- Co  138       -0.01      0.02      4.59345
 Co   18 -- Co  118       -0.01      0.02      4.59374
 Co    6 -- Co    7        0.10     -0.01      4.60721
 Co    2 -- Co    3        0.10     -0.01      4.60734
 Co   10 -- Co   11        0.10     -0.01      4.60744
 Co   12 -- Co   13        0.10     -0.01      4.60861
 Co    4 -- Co    5        0.10     -0.01      4.60878
 Co    8 -- Co    9        0.10     -0.01      4.60883
 Co   60 -- Co  116        0.24     -0.01      4.64440
 Co   76 -- Co   96        0.24     -0.01      4.64464
 Co   68 -- Co  136        0.24     -0.01      4.64484
 Co   79 -- Co   99        0.24     -0.01      4.64490
 Co   63 -- Co  119        0.24     -0.01      4.64529
 Co   56 -- Co  111        0.24     -0.01      4.64541
 Co   71 -- Co  139        0.24     -0.01      4.64542
 Co   64 -- Co  131        0.24     -0.01      4.64555
 Co   60 -- Co  106        0.24     -0.01      4.64576
 Co   76 -- Co   86        0.24     -0.01      4.64580
 Co   79 -- Co   89        0.24     -0.01      4.64583
 Co   68 -- Co  126        0.24     -0.01      4.64584
 Co   67 -- Co  134        0.24     -0.01      4.64589
 Co   75 -- Co   94        0.24     -0.01      4.64593
 Co   59 -- Co  114        0.24     -0.01      4.64595
 Co   72 -- Co   91        0.24     -0.01      4.64597
 Co   71 -- Co  129        0.24     -0.01      4.64619
 Co   64 -- Co  121        0.24     -0.01      4.64638
 Co   63 -- Co  109        0.24     -0.01      4.64639
 Co   67 -- Co  124        0.24     -0.01      4.64653
 Co   56 -- Co  101        0.24     -0.01      4.64661
 Co   75 -- Co   84        0.24     -0.01      4.64675
 Co   59 -- Co  104        0.24     -0.01      4.64691
 Co   72 -- Co   81        0.24     -0.01      4.64700
 Co   64 -- Co  105        0.24     -0.01      4.64920
 Co   56 -- Co   85        0.24     -0.01      4.64931
 Co   64 -- Co  107        0.24     -0.01      4.64949
 Co   76 -- Co  135        0.24     -0.01      4.64953
 Co   60 -- Co   95        0.24     -0.01      4.64960
 Co   79 -- Co  130        0.24     -0.01      4.64962
 Co   72 -- Co  125        0.24     -0.01      4.64969
 Co   67 -- Co  100        0.24     -0.01      4.64982
 Co   56 -- Co   87        0.24     -0.01      4.64985
 Co   59 -- Co   80        0.24     -0.01      4.64990
 Co   63 -- Co   90        0.24     -0.01      4.64993
 Co   76 -- Co  137        0.24     -0.01      4.64995
 Co   68 -- Co  115        0.24     -0.01      4.64996
 Co   72 -- Co  127        0.24     -0.01      4.65011
 Co   75 -- Co  120        0.24     -0.01      4.65015
 Co   60 -- Co   97        0.24     -0.01      4.65016
 Co   71 -- Co  110        0.24     -0.01      4.65020
 Co   67 -- Co  102        0.24     -0.01      4.65023
 Co   79 -- Co  132        0.24     -0.01      4.65024
 Co   68 -- Co  117        0.24     -0.01      4.65027
 Co   59 -- Co   82        0.24     -0.01      4.65054
 Co   63 -- Co   92        0.24     -0.01      4.65065
 Co   75 -- Co  122        0.24     -0.01      4.65067
 Co   71 -- Co  112        0.24     -0.01      4.65071
 Co   78 -- Co   79        0.24     -0.01      4.65663
 Co   60 -- Co   61        0.24     -0.01      4.65688
 Co   70 -- Co   71        0.24     -0.01      4.65708
 Co   68 -- Co   69        0.24     -0.01      4.65718
 Co   76 -- Co   77        0.24     -0.01      4.65721
 Co   74 -- Co   75        0.24     -0.01      4.65723
 Co   66 -- Co   67        0.24     -0.01      4.65724
 Co   62 -- Co   63        0.24     -0.01      4.65725
 Co   58 -- Co   59        0.24     -0.01      4.65753
 Co   56 -- Co   57        0.24     -0.01      4.65756
 Co   64 -- Co   65        0.24     -0.01      4.65764
 Co   72 -- Co   73        0.24     -0.01      4.65814
 Co   22 -- Co   49        0.04      0.00      4.68606
 Co   22 -- Co   53        0.04      0.00      4.68613
 Co   28 -- Co   33        0.04      0.00      4.68635
 Co   28 -- Co   37        0.04      0.00      4.68635
 Co   16 -- Co   45        0.04      0.00      4.68637
 Co   16 -- Co   41        0.04      0.00      4.68650
 Co   17 -- Co   46        0.04      0.00      4.68707
 Co   31 -- Co   39        0.05      0.00      4.68716
 Co   29 -- Co   38        0.04      0.00      4.68720
 Co   14 -- Co   44        0.05      0.00      4.68728
 Co   20 -- Co   52        0.04      0.00      4.68737
 Co   20 -- Co   48        0.05      0.00      4.68738
 Co   20 -- Co   43        0.05     -0.00      4.68742
 Co   23 -- Co   54        0.04      0.00      4.68747
 Co   14 -- Co   40        0.04      0.00      4.68747
 Co   19 -- Co   47        0.05      0.00      4.68754
 Co   17 -- Co   42        0.04      0.00      4.68757
 Co   31 -- Co   35        0.05      0.00      4.68760
 Co   14 -- Co   35        0.05     -0.00      4.68763
 Co   29 -- Co   34        0.04      0.00      4.68763
 Co   22 -- Co   40        0.05     -0.00      4.68768
 Co   25 -- Co   55        0.05      0.00      4.68773
 Co   26 -- Co   36        0.05      0.00      4.68780
 Co   31 -- Co   52        0.05     -0.00      4.68781
 Co   22 -- Co   41        0.05     -0.00      4.68783
 Co   23 -- Co   50        0.04      0.00      4.68788
 Co   26 -- Co   32        0.05      0.00      4.68789
 Co   16 -- Co   32        0.05     -0.00      4.68791
 Co   20 -- Co   42        0.05     -0.00      4.68796
 Co   31 -- Co   53        0.05     -0.00      4.68799
 Co   26 -- Co   51        0.05     -0.00      4.68800
 Co   25 -- Co   51        0.05      0.00      4.68801
 Co   14 -- Co   34        0.05     -0.00      4.68803
 Co   28 -- Co   48        0.05     -0.00      4.68806
 Co   19 -- Co   43        0.05      0.00      4.68807
 Co   19 -- Co   36        0.05     -0.00      4.68816
 Co   16 -- Co   33        0.05     -0.00      4.68822
 Co   28 -- Co   49        0.05     -0.00      4.68825
 Co   19 -- Co   37        0.05     -0.00      4.68840
 Co   26 -- Co   50        0.05     -0.00      4.68845
 Co   25 -- Co   44        0.05     -0.00      4.68847
 Co   25 -- Co   45        0.05     -0.00      4.68854
 Co   29 -- Co   55        0.05     -0.00      4.68875
 Co   17 -- Co   39        0.05     -0.00      4.68888
 Co   23 -- Co   47        0.05     -0.00      4.68918
 Co   29 -- Co   54        0.05     -0.00      4.68923
 Co   17 -- Co   38        0.05     -0.00      4.68928
 Co   23 -- Co   46        0.05     -0.00      4.68968
 Co   21 -- Co   22        0.08     -0.00      4.69675
 Co   27 -- Co   28        0.08     -0.00      4.69692
 Co   17 -- Co   18        0.08     -0.00      4.69700
 Co   15 -- Co   16        0.08     -0.00      4.69712
 Co   29 -- Co   30        0.08     -0.00      4.69724
 Co   23 -- Co   24        0.08     -0.00      4.69737
 Co   14 -- Co   15        0.08     -0.00      4.69880
 Co   20 -- Co   21        0.08     -0.00      4.69884
 Co   26 -- Co   27        0.08     -0.00      4.69927
 Co   30 -- Co   31        0.08     -0.00      4.70027
 Co   24 -- Co   25        0.08     -0.00      4.70074
 Co   18 -- Co   19        0.08     -0.00      4.70076
 Co   65 -- Co   66        0.28     -0.03      4.71107
 Co   57 -- Co   58        0.28     -0.03      4.71120
 Co   73 -- Co   74        0.28     -0.03      4.71133
 Co   77 -- Co   78        0.28     -0.03      4.71171
 Co   61 -- Co   62        0.28     -0.03      4.71182
 Co   69 -- Co   70        0.28     -0.03      4.71203
 Co  102 -- Co  104        0.26     -0.03      4.71244
 Co  122 -- Co  124        0.26     -0.03      4.71248
 Co   82 -- Co   84        0.26     -0.03      4.71257
 Co  132 -- Co  134        0.26     -0.03      4.71264
 Co  100 -- Co  101        0.26     -0.03      4.71273
 Co  120 -- Co  121        0.26     -0.03      4.71287
 Co   92 -- Co   94        0.26     -0.03      4.71294
 Co  112 -- Co  114        0.26     -0.03      4.71300
 Co   80 -- Co   81        0.26     -0.03      4.71304
 Co   87 -- Co   89        0.26     -0.03      4.71313
 Co  107 -- Co  109        0.26     -0.03      4.71327
 Co  130 -- Co  131        0.26     -0.03      4.71329
 Co   97 -- Co   99        0.26     -0.03      4.71346
 Co  110 -- Co  111        0.26     -0.03      4.71354
 Co  127 -- Co  129        0.26     -0.03      4.71355
 Co   90 -- Co   91        0.26     -0.03      4.71361
 Co  137 -- Co  139        0.26     -0.03      4.71366
 Co  117 -- Co  119        0.26     -0.03      4.71380
 Co  105 -- Co  106        0.26     -0.03      4.71385
 Co   85 -- Co   86        0.26     -0.03      4.71391
 Co   78 -- Co   98        0.22     -0.02      4.71395
 Co   62 -- Co  118        0.22     -0.02      4.71420
 Co  125 -- Co  126        0.26     -0.03      4.71424
 Co   77 -- Co   98        0.22     -0.02      4.71431
 Co   61 -- Co  118        0.22     -0.02      4.71435
 Co   95 -- Co   96        0.26     -0.03      4.71438
 Co   70 -- Co  138        0.22     -0.02      4.71438
 Co   78 -- Co   88        0.22     -0.02      4.71444
 Co  135 -- Co  136        0.26     -0.03      4.71451
 Co  115 -- Co  116        0.26     -0.03      4.71452
 Co   69 -- Co  138        0.22     -0.02      4.71465
 Co   66 -- Co  133        0.22     -0.02      4.71466
 Co   62 -- Co  108        0.22     -0.02      4.71475
 Co   65 -- Co  133        0.22     -0.02      4.71475
 Co   66 -- Co  123        0.22     -0.02      4.71476
 Co   70 -- Co  128        0.22     -0.02      4.71479
 Co   77 -- Co   88        0.22     -0.02      4.71480
 Co   58 -- Co  113        0.22     -0.02      4.71481
 Co   57 -- Co  113        0.22     -0.02      4.71482
 Co   65 -- Co  123        0.22     -0.02      4.71489
 Co   61 -- Co  108        0.22     -0.02      4.71490
 Co   74 -- Co   93        0.22     -0.02      4.71494
 Co   58 -- Co  103        0.22     -0.02      4.71503
 Co   57 -- Co  103        0.22     -0.02      4.71509
 Co   69 -- Co  128        0.22     -0.02      4.71509
 Co   74 -- Co   83        0.22     -0.02      4.71509
 Co   73 -- Co   93        0.22     -0.02      4.71511
 Co   73 -- Co   83        0.22     -0.02      4.71533
 Co  132 -- Co  133        0.22     -0.02      4.71557
 Co  102 -- Co  103        0.22     -0.02      4.71581
 Co   92 -- Co   93        0.22     -0.02      4.71591
 Co   82 -- Co   83        0.22     -0.02      4.71593
 Co  122 -- Co  123        0.22     -0.02      4.71595
 Co  112 -- Co  113        0.22     -0.02      4.71606
 Co   87 -- Co   88        0.22     -0.02      4.71609
 Co  107 -- Co  108        0.22     -0.02      4.71618
 Co  130 -- Co  133        0.22     -0.02      4.71621
 Co   97 -- Co   98        0.22     -0.02      4.71624
 Co  100 -- Co  103        0.22     -0.02      4.71630
 Co  132 -- Co  143        0.22     -0.02      4.71636
 Co  105 -- Co  108        0.22     -0.02      4.71638
 Co  137 -- Co  138        0.22     -0.02      4.71640
 Co  127 -- Co  128        0.22     -0.02      4.71656
 Co  120 -- Co  123        0.22     -0.02      4.71656
 Co   85 -- Co   88        0.22     -0.02      4.71657
 Co  135 -- Co  138        0.22     -0.02      4.71659
 Co   95 -- Co   98        0.22     -0.02      4.71659
 Co  110 -- Co  113        0.22     -0.02      4.71660
 Co  130 -- Co  147        0.22     -0.02      4.71660
 Co   90 -- Co   93        0.22     -0.02      4.71668
 Co   80 -- Co   83        0.22     -0.02      4.71669
 Co  117 -- Co  118        0.22     -0.02      4.71669
 Co  115 -- Co  118        0.22     -0.02      4.71674
 Co  102 -- Co  141        0.22     -0.02      4.71674
 Co  100 -- Co  143        0.22     -0.02      4.71676
 Co  112 -- Co  140        0.22     -0.02      4.71676
 Co  122 -- Co  141        0.22     -0.02      4.71679
 Co   92 -- Co  145        0.22     -0.02      4.71680
 Co  120 -- Co  145        0.22     -0.02      4.71685
 Co  105 -- Co  147        0.22     -0.02      4.71685
 Co   85 -- Co  142        0.22     -0.02      4.71686
 Co  125 -- Co  128        0.22     -0.02      4.71692
 Co   82 -- Co  141        0.22     -0.02      4.71695
 Co  110 -- Co  142        0.22     -0.02      4.71697
 Co   90 -- Co  144        0.22     -0.02      4.71703
 Co   87 -- Co  143        0.22     -0.02      4.71705
 Co   80 -- Co  140        0.22     -0.02      4.71705
 Co   95 -- Co  146        0.22     -0.02      4.71706
 Co   97 -- Co  147        0.22     -0.02      4.71710
 Co  107 -- Co  145        0.22     -0.02      4.71713
 Co  135 -- Co  146        0.22     -0.02      4.71723
 Co  125 -- Co  144        0.22     -0.02      4.71728
 Co   77 -- Co   96        0.20     -0.01      4.71730
 Co  115 -- Co  146        0.22     -0.02      4.71731
 Co  137 -- Co  142        0.22     -0.02      4.71731
 Co   78 -- Co   99        0.20     -0.01      4.71734
 Co   61 -- Co  116        0.20     -0.01      4.71734
 Co  117 -- Co  144        0.22     -0.02      4.71744
 Co   69 -- Co  136        0.20     -0.01      4.71745
 Co  127 -- Co  140        0.22     -0.02      4.71753
 Co   61 -- Co  106        0.20     -0.01      4.71757
 Co   66 -- Co  134        0.20     -0.01      4.71760
 Co   77 -- Co   86        0.20     -0.01      4.71761
 Co   78 -- Co   89        0.20     -0.01      4.71764
 Co   65 -- Co  131        0.20     -0.01      4.71772
 Co   70 -- Co  139        0.20     -0.01      4.71773
 Co   62 -- Co  119        0.20     -0.01      4.71773
 Co   69 -- Co  126        0.20     -0.01      4.71785
 Co   58 -- Co  114        0.20     -0.01      4.71788
 Co   74 -- Co   94        0.20     -0.01      4.71790
 Co   57 -- Co  111        0.20     -0.01      4.71792
 Co   62 -- Co  109        0.20     -0.01      4.71796
 Co   70 -- Co  129        0.20     -0.01      4.71807
 Co   66 -- Co  124        0.20     -0.01      4.71813
 Co   73 -- Co   91        0.20     -0.01      4.71823
 Co   58 -- Co  104        0.20     -0.01      4.71829
 Co   65 -- Co  121        0.20     -0.01      4.71830
 Co   57 -- Co  101        0.20     -0.01      4.71834
 Co   74 -- Co   84        0.20     -0.01      4.71835
 Co   73 -- Co   81        0.20     -0.01      4.71872
 Co   99 -- Co  130        0.20     -0.01      4.71888
 Co  100 -- Co  134        0.20     -0.01      4.71921
 Co  110 -- Co  139        0.20     -0.01      4.71929
 Co  105 -- Co  131        0.20     -0.01      4.71931
 Co   95 -- Co  116        0.20     -0.01      4.71934
 Co   90 -- Co  119        0.20     -0.01      4.71935
 Co   94 -- Co  120        0.20     -0.01      4.71939
 Co   96 -- Co  135        0.20     -0.01      4.71940
 Co   85 -- Co  111        0.20     -0.01      4.71943
 Co   89 -- Co  132        0.20     -0.01      4.71948
 Co  115 -- Co  136        0.20     -0.01      4.71950
 Co   80 -- Co  114        0.20     -0.01      4.71951
 Co  121 -- Co  145        0.21     -0.02      4.71969
 Co  101 -- Co  143        0.21     -0.02      4.71976
 Co   97 -- Co  106        0.20     -0.01      4.71980
 Co   91 -- Co  125        0.20     -0.01      4.71984
 Co   92 -- Co  109        0.20     -0.01      4.71988
 Co   87 -- Co  101        0.20     -0.01      4.71989
 Co  107 -- Co  121        0.20     -0.01      4.71993
 Co   86 -- Co  137        0.20     -0.01      4.71993
 Co  102 -- Co  124        0.20     -0.01      4.71996
 Co  112 -- Co  129        0.20     -0.01      4.71996
 Co  124 -- Co  141        0.21     -0.02      4.71996
 Co   84 -- Co  122        0.20     -0.01      4.72005
 Co   81 -- Co  140        0.21     -0.02      4.72010
 Co   82 -- Co  104        0.20     -0.01      4.72011
 Co   89 -- Co  143        0.21     -0.02      4.72011
 Co  104 -- Co  141        0.21     -0.02      4.72013
 Co  117 -- Co  126        0.20     -0.01      4.72014
 Co  131 -- Co  147        0.21     -0.02      4.72017
 Co   86 -- Co  142        0.21     -0.02      4.72023
 Co   84 -- Co  141        0.21     -0.02      4.72026
 Co  134 -- Co  143        0.21     -0.02      4.72027
 Co  106 -- Co  147        0.21     -0.02      4.72030
 Co   81 -- Co  127        0.20     -0.01      4.72035
 Co  109 -- Co  145        0.21     -0.02      4.72039
 Co  111 -- Co  142        0.21     -0.02      4.72040
 Co  114 -- Co  140        0.21     -0.02      4.72057
 Co  129 -- Co  140        0.21     -0.02      4.72064
 Co   91 -- Co  144        0.21     -0.02      4.72066
 Co   94 -- Co  145        0.21     -0.02      4.72067
 Co  126 -- Co  144        0.21     -0.02      4.72069
 Co   99 -- Co  147        0.21     -0.02      4.72087
 Co   96 -- Co  146        0.21     -0.02      4.72100
 Co  116 -- Co  146        0.21     -0.02      4.72116
 Co  119 -- Co  144        0.21     -0.02      4.72120
 Co  139 -- Co  142        0.21     -0.02      4.72129
 Co  136 -- Co  146        0.21     -0.02      4.72132
 Co   38 -- Co   46        0.05      0.00      4.72306
 Co   38 -- Co   54        0.05      0.00      4.72312
 Co   46 -- Co   54        0.05      0.00      4.72317
 Co   39 -- Co   52        0.05      0.00      4.72397
 Co   42 -- Co   52        0.05      0.00      4.72408
 Co   34 -- Co   44        0.05      0.00      4.72421
 Co   44 -- Co   55        0.05      0.00      4.72430
 Co   39 -- Co   42        0.05      0.00      4.72435
 Co   36 -- Co   47        0.05      0.00      4.72438
 Co   36 -- Co   50        0.05      0.00      4.72448
 Co   34 -- Co   55        0.05      0.00      4.72457
 Co   40 -- Co   53        0.05      0.00      4.72458
 Co   35 -- Co   53        0.05      0.00      4.72468
 Co   47 -- Co   50        0.05      0.00      4.72472
 Co   37 -- Co   48        0.05      0.00      4.72479
 Co   35 -- Co   40        0.05      0.00      4.72480
 Co   32 -- Co   45        0.05      0.00      4.72494
 Co   43 -- Co   48        0.05      0.00      4.72497
 Co   41 -- Co   49        0.05      0.00      4.72501
 Co   37 -- Co   43        0.05      0.00      4.72503
 Co   33 -- Co   49        0.05      0.00      4.72508
 Co   33 -- Co   41        0.05      0.00      4.72511
 Co   45 -- Co   51        0.05      0.00      4.72514
 Co   32 -- Co   51        0.05      0.00      4.72527
 Co  123 -- Co  124        0.23     -0.02      4.72541
 Co   83 -- Co   84        0.23     -0.02      4.72547
 Co  103 -- Co  104        0.23     -0.02      4.72554
 Co  133 -- Co  134        0.23     -0.02      4.72568
 Co  101 -- Co  103        0.23     -0.02      4.72578
 Co   88 -- Co   89        0.23     -0.02      4.72580
 Co  121 -- Co  123        0.23     -0.02      4.72589
 Co   93 -- Co   94        0.23     -0.02      4.72591
 Co  106 -- Co  108        0.23     -0.02      4.72594
 Co  113 -- Co  114        0.23     -0.02      4.72605
 Co  131 -- Co  133        0.23     -0.02      4.72615
 Co  108 -- Co  109        0.23     -0.02      4.72615
 Co   86 -- Co   88        0.23     -0.02      4.72615
 Co   81 -- Co   83        0.23     -0.02      4.72623
 Co  128 -- Co  129        0.23     -0.02      4.72625
 Co  111 -- Co  113        0.23     -0.02      4.72632
 Co  126 -- Co  128        0.23     -0.02      4.72637
 Co   98 -- Co   99        0.23     -0.02      4.72650
 Co   91 -- Co   93        0.23     -0.02      4.72662
 Co  116 -- Co  118        0.23     -0.02      4.72671
 Co   96 -- Co   98        0.23     -0.02      4.72680
 Co  138 -- Co  139        0.23     -0.02      4.72684
 Co  136 -- Co  138        0.23     -0.02      4.72688
 Co  118 -- Co  119        0.23     -0.02      4.72698
 Co   21 -- Co   49        0.06      0.00      4.72767
 Co   15 -- Co   41        0.06      0.00      4.72775
 Co   27 -- Co   33        0.06      0.00      4.72793
 Co  105 -- Co  107        0.22     -0.02      4.72809
 Co   85 -- Co   87        0.22     -0.02      4.72811
 Co   30 -- Co   34        0.06      0.00      4.72819
 Co   21 -- Co   48        0.06      0.00      4.72819
 Co   21 -- Co   53        0.06      0.00      4.72820
 Co   15 -- Co   40        0.06      0.00      4.72821
 Co   18 -- Co   42        0.06      0.00      4.72824
 Co   95 -- Co   97        0.22     -0.02      4.72843
 Co  125 -- Co  127        0.22     -0.02      4.72849
 Co   15 -- Co   45        0.06      0.00      4.72851
 Co   27 -- Co   37        0.06      0.00      4.72853
 Co   27 -- Co   32        0.06      0.00      4.72853
 Co  135 -- Co  137        0.22     -0.02      4.72857
 Co   24 -- Co   50        0.06      0.00      4.72859
 Co  115 -- Co  117        0.22     -0.02      4.72866
 Co  100 -- Co  102        0.22     -0.02      4.72889
 Co   21 -- Co   52        0.06      0.00      4.72893
 Co  120 -- Co  122        0.22     -0.02      4.72896
 Co  130 -- Co  132        0.22     -0.02      4.72904
 Co   80 -- Co   82        0.22     -0.02      4.72908
 Co   15 -- Co   44        0.06      0.00      4.72916
 Co   30 -- Co   38        0.06      0.00      4.72932
 Co   27 -- Co   36        0.06      0.00      4.72933
 Co  110 -- Co  112        0.22     -0.02      4.72946
 Co   90 -- Co   92        0.22     -0.02      4.72947
 Co   18 -- Co   46        0.06      0.00      4.72949
 Co   24 -- Co   54        0.06      0.00      4.72955
 Co   30 -- Co   35        0.06      0.00      4.72980
 Co   18 -- Co   43        0.06      0.00      4.72998
 Co   24 -- Co   51        0.06      0.00      4.73027
 Co   30 -- Co   39        0.06      0.00      4.73065
[...]
*    Co    140     -0.00012368  -0.00012239  -0.00021606 *
*    Co    141     -0.00012368  -0.00012239  -0.00021606 *
*    Co    142     -0.00012368  -0.00012239  -0.00021606 *
*    Co    143     -0.00012368  -0.00012239  -0.00021606 *
*    Co    144     -0.00012368  -0.00012239  -0.00021606 *
*    Co    145     -0.00012368  -0.00012239  -0.00021606 *
*    Co    146     -0.00012368  -0.00012239  -0.00021606 *
*    Co    147     -0.00012368  -0.00012239  -0.00021606 *
*                                                        *
**********************************************************
TOTAL:             -0.01818060  -0.01799073  -0.03176098

********************* Unconstrained **********************
************************* Forces *************************
*                                                        *
* Element  Atom         Cartesian components (Eh/a)      *
* ------------------------------------------------------ *
*                       x            y            z      *
*                                                        *
*    Co      1      0.00077672   0.00071137   0.00104140 *
*    Co      2      0.00015026   0.00035403   0.00061395 *
*    Co      3     -0.00048833   0.00038964   0.00007397 *
*    Co      4      0.00024292   0.00015385   0.00058233 *
*    Co      5      0.00001275   0.00016652   0.00028625 *
*    Co      6      0.00043229   0.00009704   0.00058511 *
*    Co      7     -0.00010127  -0.00048869   0.00062188 *
*    Co      8      0.00040735   0.00023267   0.00037935 *
*    Co      9      0.00011585  -0.00003936   0.00039093 *
*    Co     10      0.00039905   0.00042865   0.00026441 *
*    Co     11      0.00043075  -0.00016099  -0.00031142 *
*    Co     12      0.00018978   0.00034586   0.00041641 *
*    Co     13      0.00019634   0.00010161   0.00013654 *
*    Co     14      0.00069308   0.00006753   0.00009017 *
*    Co     15      0.00077371   0.00008743   0.00014816 *
*    Co     16      0.00054908   0.00008548   0.00034285 *
*    Co     17     -0.00071215   0.00006041  -0.00015445 *
*    Co     18     -0.00077777   0.00006092   0.00041763 *
*    Co     19     -0.00045069   0.00006795   0.00019483 *
*    Co     20      0.00003437   0.00061829   0.00018704 *
*    Co     21      0.00002865   0.00077146   0.00022552 *
*    Co     22      0.00031288   0.00062137   0.00020052 *
*    Co     23     -0.00019387  -0.00064344   0.00018432 *
*    Co     24      0.00029542  -0.00078018   0.00020249 *
*    Co     25      0.00012670  -0.00049980   0.00017949 *
*    Co     26      0.00008514   0.00008030   0.00060735 *
*    Co     27      0.00010766   0.00001063   0.00076218 *
*    Co     28      0.00009847   0.00021873   0.00060647 *
*    Co     29      0.00008160  -0.00028302  -0.00066458 *
*    Co     30      0.00008183   0.00027562  -0.00080095 *
*    Co     31      0.00008823   0.00017726  -0.00052862 *
*    Co     32     -0.00004982   0.00052582   0.00012036 *
*    Co     33      0.00000947  -0.00032639   0.00005733 *
*    Co     34      0.00019055   0.00045863  -0.00008772 *
*    Co     35      0.00006873  -0.00027479   0.00003755 *
*    Co     36      0.00014331   0.00052643   0.00033178 *
*    Co     37      0.00012678  -0.00031637   0.00023121 *
*    Co     38     -0.00003351   0.00052430  -0.00025579 *
*    Co     39      0.00012594  -0.00031979  -0.00007499 *
*    Co     40      0.00013648   0.00001262   0.00061593 *
*    Co     41      0.00000789   0.00002734  -0.00017124 *
*    Co     42     -0.00014946   0.00014546   0.00061267 *
*    Co     43      0.00004032  -0.00002024  -0.00017487 *
*    Co     44      0.00032365   0.00005916   0.00062668 *
*    Co     45      0.00015486   0.00009082  -0.00017633 *
*    Co     46     -0.00030937  -0.00002215   0.00068010 *
*    Co     47     -0.00007201   0.00017346  -0.00022567 *
*    Co     48      0.00052944   0.00004082   0.00009685 *
*    Co     49     -0.00029413  -0.00002724   0.00014761 *
*    Co     50      0.00052741  -0.00008849   0.00022428 *
*    Co     51     -0.00031075   0.00005396   0.00009611 *
*    Co     52      0.00049637   0.00033512   0.00018078 *
*    Co     53     -0.00025107   0.00023322   0.00016614 *
*    Co     54      0.00055539  -0.00034060   0.00010342 *
*    Co     55     -0.00030973  -0.00015639   0.00026563 *
*    Co     56      0.00087521   0.00000144  -0.00047651 *
*    Co     57      0.00039822   0.00003060  -0.00018881 *
*    Co     58      0.00026926   0.00002921   0.00030577 *
*    Co     59      0.00039301   0.00000283   0.00011489 *
*    Co     60     -0.00134468   0.00000060  -0.00074854 *
*    Co     61     -0.00094633   0.00002998  -0.00020446 *
*    Co     62     -0.00074520   0.00002903   0.00034625 *
*    Co     63     -0.00089986   0.00000408   0.00038186 *
*    Co     64     -0.00041871   0.00082216  -0.00001278 *
*    Co     65     -0.00021517   0.00039681   0.00005303 *
*    Co     66      0.00028583   0.00034127   0.00005119 *
*    Co     67      0.00020038   0.00050301  -0.00001095 *
*    Co     68     -0.00065913  -0.00122673  -0.00000961 *
*    Co     69     -0.00022487  -0.00087085   0.00005335 *
*    Co     70      0.00031536  -0.00075092   0.00005091 *
*    Co     71      0.00044987  -0.00097032  -0.00000990 *
*    Co     72     -0.00000102  -0.00029125   0.00057848 *
*    Co     73      0.00003183  -0.00019119   0.00014425 *
*    Co     74      0.00003026   0.00025372   0.00010502 *
*    Co     75     -0.00000006   0.00011107   0.00031138 *
*    Co     76      0.00000065  -0.00074784  -0.00141796 *
*    Co     77      0.00003172  -0.00025672  -0.00110271 *
*    Co     78      0.00003106   0.00034101  -0.00099986 *
*    Co     79      0.00000140   0.00056660  -0.00120181 *
*    Co     80      0.00018323   0.00017647   0.00009087 *
*    Co     81     -0.00011890  -0.00003279  -0.00004747 *
*    Co     82      0.00013974  -0.00012445   0.00001037 *
*    Co     83     -0.00026032   0.00004761  -0.00046768 *
*    Co     84     -0.00020942   0.00001884  -0.00021106 *
*    Co     85      0.00055755  -0.00001990  -0.00059972 *
*    Co     86      0.00024212  -0.00028016  -0.00057054 *
*    Co     87      0.00053034   0.00007497  -0.00053842 *
*    Co     88      0.00003126   0.00005512  -0.00015377 *
*    Co     89      0.00012198   0.00026028  -0.00041926 *
*    Co     90     -0.00031842   0.00006520   0.00038075 *
*    Co     91      0.00010154  -0.00005878   0.00003567 *
*    Co     92     -0.00029405  -0.00001471   0.00031982 *
*    Co     93      0.00031090   0.00004337  -0.00034441 *
*    Co     94      0.00019220   0.00006310  -0.00008322 *
*    Co     95     -0.00070530  -0.00010688  -0.00085211 *
*    Co     96     -0.00024870  -0.00031192  -0.00066958 *
*    Co     97     -0.00069205   0.00016007  -0.00080502 *
*    Co     98      0.00001858   0.00005006  -0.00026192 *
*    Co     99     -0.00012271   0.00030904  -0.00054764 *
*    Co    100      0.00024981   0.00031932   0.00014727 *
*    Co    101      0.00018861   0.00000132  -0.00011474 *
*    Co    102      0.00009467   0.00020742  -0.00007740 *
*    Co    103     -0.00029609  -0.00018947   0.00010414 *
*    Co    104     -0.00013579  -0.00017980   0.00006742 *
*    Co    105     -0.00055121   0.00051537   0.00001713 *
*    Co    106     -0.00051678   0.00022284  -0.00024039 *
*    Co    107     -0.00040967   0.00041456   0.00005654 *
*    Co    108     -0.00000715  -0.00003835   0.00011170 *
*    Co    109     -0.00020144   0.00000817   0.00018612 *
*    Co    110      0.00051156  -0.00043003   0.00004431 *
*    Co    111      0.00025457  -0.00001134  -0.00013308 *
*    Co    112      0.00037962  -0.00034190   0.00002582 *
*    Co    113     -0.00019429   0.00023910   0.00009777 *
*    Co    114     -0.00001882   0.00016796   0.00010705 *
*    Co    115     -0.00076564  -0.00063684  -0.00005888 *
*    Co    116     -0.00059159  -0.00021959  -0.00026154 *
*    Co    117     -0.00063368  -0.00054543   0.00012834 *
*    Co    118     -0.00008460   0.00008625   0.00010779 *
*    Co    119     -0.00030614   0.00000196   0.00022326 *
*    Co    120      0.00016828   0.00012077   0.00022538 *
*    Co    121     -0.00007713   0.00007569  -0.00002895 *
*    Co    122     -0.00011885   0.00003069   0.00017299 *
*    Co    123      0.00005460  -0.00035198  -0.00015972 *
*    Co    124      0.00005744  -0.00011586  -0.00014188 *
*    Co    125      0.00005866  -0.00036579   0.00038797 *
*    Co    126     -0.00017804  -0.00034434   0.00016448 *
*    Co    127     -0.00000828  -0.00029223   0.00035103 *
*    Co    128      0.00005980   0.00011318  -0.00003286 *
*    Co    129      0.00015370  -0.00017466   0.00002840 *
*    Co    130     -0.00001899   0.00063146  -0.00049846 *
*    Co    131     -0.00016712   0.00028838  -0.00000089 *
*    Co    132      0.00006685   0.00055735  -0.00046606 *
*    Co    133      0.00004966  -0.00007648   0.00024455 *
*    Co    134      0.00016522   0.00014030   0.00011329 *
*    Co    135     -0.00010083  -0.00083000  -0.00067185 *
*    Co    136     -0.00027265  -0.00057216  -0.00018266 *
*    Co    137      0.00015049  -0.00076671  -0.00064542 *
*    Co    138      0.00005745  -0.00014434   0.00011561 *
*    Co    139      0.00026101  -0.00042031  -0.00003464 *
*    Co    140     -0.00027986   0.00038581  -0.00025182 *
*    Co    141     -0.00045288  -0.00045925  -0.00041716 *
*    Co    142      0.00003204   0.00005609   0.00012361 *
*    Co    143     -0.00012041  -0.00011457   0.00026233 *
*    Co    144      0.00020731   0.00022419  -0.00007621 *
*    Co    145      0.00036848  -0.00027498  -0.00021703 *
*    Co    146     -0.00009952  -0.00010373  -0.00006050 *
*    Co    147      0.00005546   0.00005598   0.00007038 *
*                                                        *
**********************************************************
* TOTAL:           -0.00000000  -0.00000000  -0.00000000 *
**********************************************************
 
 
***********************************************************
********** Summary of Forces (values in Eh/a) *************
*                                                         *
* ---------------------- Minimum ------------------------ *
* Atom:       147, |F|min =    0.00010565                 *
* Components:     Fx|min       Fy|min       Fz|min        *
*               0.00005546   0.00005598   0.00007038      *
*                                                         *
* ---------------------- Maximum ------------------------ *
* Atom:        76, |F|max =    0.00160308                 *
* Components:     Fx|max       Fy|max       Fz|max        *
*               0.00000065  -0.00074784  -0.00141796      *
*                                                         *
* ---------------- Root Mean Square Force --------------- *
*                  |F|rms =    0.00063965                 *
* Components:     Fx|rms       Fy|rms       Fz|rms        *
*               0.00035861   0.00035385   0.00039413      *
***********************************************************
 

------------------------------ TIMING INFORMATION ------------------------------
AVERAGE TIME:   18801.360s on     64 proc(s)                                    
TOTAL TIME:     18801.361s on     64 proc(s)                                    
==================== AVERAGE TIMINGS FROM ALL PROCS (CUMULATIVE) =====================
|| TAG                                         #calls     cpu time   %total  Gflops ||
|| hash_table_free                            :    89        0.00s   0.000%  ------ ||
|| sw_bessel_init_cpu                         :     1        0.02s   0.000%  ------ || (1 procs only)
|| onetep.F90 main loop imbalance             :     1        0.00s   0.000%  ------ ||
|| ewald_calculate_forces_realspace           :     1        0.00s   0.000%  ------ ||
|| onetep.F90 final imbalance                 :     1        0.00s   0.000%  ------ ||
|| density_fftbox_interp_mult_imbal           : 61230        0.01s   0.000%  ------ ||
|| paw_tcore_density                          :     1        0.01s   0.000%  ------ ||
|| ewald_calculate_forces_recipspace          :     1        0.02s   0.000%  ------ ||
|| ewald_calculate_energy                     :     1        0.02s   0.000%  ------ ||
|| linalg_dgemv                               :    23        0.02s   0.000%  ------ ||
|| ewald_calculate_forces                     :     1        0.02s   0.000%  ------ ||
|| paw_tcore_hartree_on_grid                  :     1        0.02s   0.000%  ------ ||
|| pseudo_make_structure_factor               :     1        0.02s   0.000%  ------ ||
|| sparse_set_to_garbage                      :   795        0.04s   0.000%  ------ ||
|| augmentation_density_forces                :     1        0.12s   0.001%  ------ ||
|| paw_tcore_hartree_calc_forces              :     1        0.13s   0.001%  ------ ||
|| basis_extract_function_from_box            :  4538        0.20s   0.001%  ------ ||
|| sw_init                                    :  1569        0.24s   0.001%  ------ ||
|| paw_nlcc_calculate_forces                  :     1        0.25s   0.001%  ------ ||
|| sparse_init                                :     1        0.29s   0.002%  ------ ||
|| ngwfs_initialise_from_radial               :     1        0.31s   0.002%  ------ ||
|| integrals_grad_spam3                       :     1        0.35s   0.002%  ------ ||
|| nonsc_forces_ngwfs_calc                    :     1        0.35s   0.002%  ------ ||
|| paw_sphere_density_on_grid                 :     1        0.57s   0.003%  ------ ||
|| paw_dij_hartree                            :  1073        0.70s   0.004%  ------ ||
|| paw_species_calc_proj_prec_mat             :     1        0.86s   0.005%  ------ ||
|| sparse_spam3toblacs_real_fast_imbal        :  3032        1.29s   0.007%  ------ ||
|| paw_dataset_init                           :     1        1.30s   0.007%  ------ ||
|| sparse_blacstospam3_real_fast_imbal        :  2960        1.73s   0.009%  ------ ||
|| restart_hamiltonian_write                  :    38        3.37s   0.018%  ------ ||
|| restart_kernel_write                       :    39        3.71s   0.020%  ------ ||
|| sparse_embed_array_hotelling_invert        :    89        5.12s   0.027%  ------ ||
|| fourier_filter_cell                        :   584        7.70s   0.041% 140.921 ||
|| energy_and_force_init_cell                 :     1        8.02s   0.043%  ------ ||
|| eigenstates_calculate                      :     1        9.28s   0.049%  ------ ||
|| density_init_guess_real                    :     2        9.42s   0.050%  ------ ||
|| projectors_func_grad_ovlp_box_spam3        :     3        9.60s   0.051%  ------ ||
|| sparse_spam3toblacs_real_fast_B2           : 194.0k       9.99s   0.053%  ------ ||
|| hamiltonian_energy_components              :     1       10.63s   0.057%  ------ ||
|| aug_nl_calculate_forces                    :     1       10.71s   0.057%  ------ ||
|| fourier_apply_box_pair                     :  5895       15.12s   0.080% 983.849 ||
|| hartree_on_grid_single                     :   784       15.19s   0.081%  ------ ||
|| basis_copy_function_to_box                 : 66556       19.57s   0.104%  ------ ||
|| fourier_interpolate_cell                   :  1570       21.93s   0.117% 133.047 ||
|| sparse_trace                               : 19362       23.68s   0.126%  ------ ||
|| forces_calculate                           :     1       30.42s   0.162%  ------ ||
|| ngwf_gradient_coeffs                       :    38       35.13s   0.187%  ------ ||
|| cell_grid_extract_box_real                 : 28021       43.22s   0.230%  ------ ||
|| projectors_init_fftbox_recip               :   549       54.12s   0.288%  ------ ||
|| fourier_apply_cell_backward                :  7057       71.55s   0.381% 165.071 ||
|| fourier_apply_cell_forward                 :  7057       71.59s   0.381% 164.997 ||
|| augmentation_screen_dij_spam3              :   783       82.82s   0.441%  ------ ||
|| properties_calculate                       :     1       87.73s   0.467%  ------ ||
|| sparse_spam3toblacs_real_fast_B1           : 194.0k      95.09s   0.506%  ------ ||
|| restart_ngwfs_tightbox_output              :    37      102.78s   0.547%  ------ ||
|| fourier_filter                             :  9929      116.19s   0.618%  ------ ||
|| cell_grid_deposit_box_real                 : 66897      117.36s   0.624%  ------ ||
|| sparse_spam3toblacs_real_fast              :  3032      126.93s   0.675%  ------ ||
|| sparse_product                             : 18321      127.46s   0.678%  ------ ||
|| sparse_blacstospam3_real_fast              :  2960      162.41s   0.864%  ------ ||
|| xc_energy_potential                        :   784      171.36s   0.911%  ------ ||
|| aug_density_on_grid_spam3                  :   785      185.33s   0.986%  ------ ||
|| function_ops_brappd_ketppd_spam3           :   177      195.78s   1.041%  ------ ||
|| fourier_interpolate                        :  9929      239.84s   1.276%  ------ ||
|| projectors_func_ovlp_box_spam3             :    89      281.17s   1.495%  ------ ||
|| integrals_kinetic_spam3                    :    89      301.59s   1.604%  ------ ||
|| density_fftbox_deposit_to_cell             : 61230      355.37s   1.890%  ------ ||
|| dense_eigensolve                           :  1382      359.52s   1.912%  ------ ||
|| projectors_gradient_batch                  :   228      456.29s   2.427%  ------ ||
|| edft_diag_ngwf_ham                         :  1380      474.63s   2.524%  ------ ||
|| potential_apply_to_ngwf_batch              :  1524      629.11s   3.346%  ------ ||
|| fourier_apply_box                          : 168.1k     709.61s   3.774%  2.503k ||
|| edft_apply_smearing_operator               :   690      714.63s   3.801%  ------ ||
|| aug_nonlocal_mat_spam3_embed_array         :  1034      744.12s   3.958%  ------ ||
|| paw_dij_xc                                 :  1073      744.51s   3.960%  ------ ||
|| basis_dot_function_with_box                : 30.80M     762.16s   4.054%  ------ ||
|| fourier_interpolate_product                : 46879      990.80s   5.270%  ------ ||
|| density_fftbox_interpolate_multiply        : 61230     1115.47s   5.933%  ------ ||
|| integrals_locpot_mat_els_batch             :  1524     1766.52s   9.396%  ------ ||
|| density_batch_interp_deposit               :  4710     1919.92s  10.212%  ------ ||
|| projectors_grad_precond_batch              :   228     2188.05s  11.638%  ------ ||
|| basis_add_function_to_box                  : 94.78M    2291.49s  12.188%  ------ ||
|| integrals_locpot_dbl_grid                  :   508     2399.30s  12.761%  ------ ||
|| ngwf_gradient_build_batch                  :   228     2820.99s  15.004%  ------ ||
|| density_batch_row_sums                     :  4710     4950.09s  26.328%  ------ ||
|| ngwf_gradient_batch                        :   228     4959.46s  26.378%  ------ ||
|| ngwf_gradient_lnv                          :    38     5912.30s  31.446%  ------ ||
|| density_on_dbl_grid                        :  1570     7060.80s  37.555%  ------ ||
|| hamiltonian_lhxc_calculate                 :   781     7688.08s  40.891%  ------ ||
|| edft_calculate                             :    38    11054.56s  58.797%  ------ ||
|| ngwf_cg_optimise                           :     1    18641.12s  99.148%  ------ ||
|| energy_and_forces                          :     1    18792.42s  99.952%  ------ ||
|| total_time                                 :     1    18801.36s 100.000%  ------ ||
======================================================================================
Overhead of generating timer report: 
- 0 ms averaging over threads,
- 7 ms ensuring consistency across MPI ranks,
- 1 ms printing in order.

Job completed: 29-03-2025 16:41 (+0000)

onetep_launcher: ONETEP seems to have finished correctly (zero exit code).
                 Brought to you by PID 201654 on nid002099.
