==================================================================================
It's Fri 27 Jun 2025 09:14:14 AM BST.
*** Starting onetep_launcher (node nid002771, PIDs 190934 190935 190936 190937 190938 190939)...
    - ONETEP arguments: Fe2_tert-butoxide_6_HighSpin.dat
    - Current directory: /mnt/lustre/a2fs-work3/work/e89/e89/phsmea/onetep_ali/Fe2_OtBu_6/HS/nsp
    - Launcher executable directory: /mnt/lustre/a2fs-work3/work/e89/e89/phsmea/onetep_ali
    - (-e) ONETEP executable specified through command-line: /work/e89/e89/phsmea/onetep.archer2_2024_cray_2
      ... trying /work/e89/e89/phsmea/onetep.archer2_2024_cray_2
          -> looks OK
*** Setting up environment...
    - (-s) Process stack size: unlimited
    - (-t) OMP_NUM_THREADS: 8
    - (-o) OMP_STACKSIZE: 64M
    - (-c) Maximum core file size: 2048000
    - (-d) decfort_dump_flag: n
    - (-m) I_MPI_OFA_TRANSLATION_CACHE: 0
    - (-m) I_MPI_DAPL_TRANSLATION_CACHE: 0
    - (-m) I_MPI_DAPL_UD_TRANSLATION_CACHE: 0
*** Starting ONETEP...
    - /work/e89/e89/phsmea/onetep.archer2_2024_cray_2 Fe2_tert-butoxide_6_HighSpin.dat
=================================================================================
_________________________________________________________________________________
 +---------------------------------------------------------------+
 |                                                               |
 |        ####### #     # ####### ####### ####### ######         |
 |        #     # ##    # #          #    #       #     #        |
 |        #     # # #   # #          #    #       #     #        |
 |        #     # #  #  # #####      #    #####   ######         |
 |        #     # #   # # #          #    #       #              |
 |        #     # #    ## #          #    #       #              |
 |        ####### #     # #######    #    ####### #              |
 |                                                               |
 |        Linear-Scaling Ab Initio Total Energy Program          |
 |                                                               |
 |          Release for academic collaborators of ODG            |
 |                                             Version 7.3.0     |
 | Remote: git@github.com:Miesaz/onetep_mea.git                  |
 | Local branch: master                                          |
 | Commit ID: 4af45e89288c8df5499704252eec3e032ee3d0c8           |
 | Date: Tue Aug 6 11:28:44 2024 +0100                           |
 | Locally modified files:                                       |
 |   src/hubbard_build_mod.F90                                   |
 |   src/services_mod.F90                                        |
 |                                                               |
 +---------------------------------------------------------------+
 |                                                               |
 |  Authors:                                                     |
 |  Jacek Dziedzic, Peter D. Haynes, Nicholas D. M. Hine,        |
 |  Arash A. Mostofi, Mike C. Payne and Chris-Kriton Skylaris    |
 |                                                               |
 |  Contributors:                                                |
 |  J. Aarons, L. Andrinopoulos, P. W. Avraam, R. A. Bell,       |
 |  A. Bhandari, G. A. Bramley, R. J. Charlton, S. J. Clark,     |
 |  R. J. Clements, G. C. Constantinescu, F. Corsetti,           |
 |  N. Corsini, O. Dieguez, S. M. M. Dubois, K. K. B. Duff,      |
 |  J. M. Escartin, M. Escobar Azor, A. Greco,                   |
 |  H. Helal, Q. O. Hill, L. P. Lee, J.-H. Li,                   |
 |  T. Li, E. B. Linscott, G. Moynihan, D. D. O`Regan,           |
 |  O. K. Okan, E. Parkinson, M. J. S. Phipps,                   |
 |  C. J. Pickard, J. C. A. Prentice, M. I. J. Probert,          |
 |  L. E. Ratcliff, M. Robinson, A. Ruiz Serrano,                |
 |  M. dos Santos Dias, J. S. Spencer, E. W. Tait,               |
 |  G. Teobaldi, D. Turban, V. Vitale, K. A. Wilkinson,          |
 |  C. Weber, J. C. Womack, Chengcheng Xiao, N. Yeung,           |
 |  and T. J. Zuehlsdorff.                                       |
 |                                                               |
 |                                   Copyright (c) 2004-2025     |
 |                                                               |
 |  Please cite:                                                 |
 |  "The ONETEP linear-scaling density functional theory program"|
 |   J. Chem. Phys. 152(17) 174111 (2020)                        |
 |                                                               |
 |          in all publications arising from your use of ONETEP. |
 |                                                               |
 +---------------------------------------------------------------+
 |                                                               |
 |   ONETEP is based on developments described in the following  |
 |   publications:                                               |
 |                                                               |
 |  "Nonorthogonal generalized Wannier function pseudopotential  |
 |   plane-wave method".                                         |
 |   C.-K. Skylaris, A. A. Mostofi, P. D. Haynes, O. Dieguez,    |
 |   M. C. Payne.                                                |
 |   Phys. Rev. B 66 035119 (2002).                              |
 |                                                               |
 |  "Preconditioned iterative minimization for linear-scaling    |
 |   electronic structure calculations".                         |
 |   A. A. Mostofi, P. D. Haynes, C.-K. Skylaris, M. C. Payne.   |
 |   J. Chem. Phys. 119(17), pp.8842-8848 (2003).                |
 |                                                               |
 |  "Total-energy calculations on a real space grid with         |
 |   localized functions and a plane-wave basis".                |
 |   A. A. Mostofi, C.-K. Skylaris, P. D. Haynes, M. C. Payne.   |
 |   Comput. Phys. Commun. 147, pp.788-802 (2002).               |
 |                                                               |
 |  "Accurate kinetic energy evaluation in electronic structure  |
 |   calculations with localized functions on real space grids"  |
 |   C.-K. Skylaris, A. A. Mostofi, P. D. Haynes, C. J. Pickard, |
 |   M. C. Payne.                                                |
 |   Comput. Phys. Commun. 140, pp.315-322 (2001).               |
 |                                                               |
 |  "Accurate ionic forces and geometry optimization in linear-  |
 |   scaling density-functional theory with local orbitals"      |
 |   N. D. M. Hine, M. Robinson, P. D. Haynes, C.-K. Skylaris,   |
 |   M. C. Payne, and A. A. Mostofi.                             |
 |   Phys. Rev. B 83 195102 (2011).                              |
 |                                                               |
 +---------------------------------------------------------------+

Job started: 27-06-2025 09:14 (+0100)
 
Reading parameters from file "Fe2_tert-butoxide_6_HighSpin.dat" ...... done

If your calculation crashes here, before "Checking processes and threads..."
is displayed, then your stack size is insufficient.
If so, use "ulimit -s unlimited" at runtime.
You can disable this check with "check_stack_size F".

Checking processes and threads...
   Determining the default number of threads...
      No default threads set at compilation time: defaulting to 1.
      OpenMP library call suggests 8 threads.
      Hybrid MPI-OpenMP compilation detected.
      Number of MPI processes > 1.
      OMP_NUM_THREADS environment variable present and
      its value matches the one obtained from the OpenMP library call.
      Using this value as default.
      Default threads: 8
      Default applies to threads_max and threads_num_fftboxes.
      Settings in the input file override this default.
   ... done

   Running with 6 MPI processes.
   There are 6 MPI processes running on the same node as the root process.
   Each MPI process is using: 
               1 threads for simulation cell FFTs.
               1 threads for threaded FFT box operations.
               8 threads for loops over batched FFT box operations.
               8 threads in other parallel regions.
   MPI Interface: S1 (use mpi_f08) (-DMPI -DUSE_MPI_F08).
   MPI_ASYNC_PROTECTS_NONBLOCKING: Yes. MPI_SUBARRAYS_SUPPORTED: Yes.
   FFTW Interface: OMP-capable and MODERN. (-DUSE_MODERN_FFTW specified).
   GPU Interface: None.
   GPU FFT Backend: None.
... done

Basic input checks...... done

Reading geometry and species blocks from file "Fe2_tert-butoxide_6_HighSpin.dat" ...
  <species_atomic_set> block not found: NGWF initialisation set to SOLVE
    
  Number of PPD points along a3 set to 1.  This is 
  the default value, it may have been provided also in the input file.
... done


--------------------------------------------------------------------------------
---------------------------------- INPUT FILE ----------------------------------
--------------------------------------------------------------------------------

charge : 0                                                                      
cutoff_energy : 800 eV                                                          
do_properties : T                                                               
edft : F                                                                        
fine_grid_scale : 4                                                             
forces_output_detail : VERBOSE                                                  
output_detail : VERBOSE                                                         
paw : T                                                                         
pseudo_path : ../../..                                                          
spin : 10                                                                       
task : SINGLEPOINT                                                              
write_denskern : T                                                              
write_forces : T                                                                
write_tightbox_ngwfs : T                                                        
xc_functional : pbe                                                             
%BLOCK HUBBARD                                                                  
Fe 2 4.0 0 -10 0 0                                                              
%ENDBLOCK HUBBARD                                                               
%BLOCK LATTICE_CART                                                             
ang                                                                             
30.10785296       0.00000000       0.00000000                                   
0.00000000      30.41344770       0.00000000                                    
0.00000000       0.00000000      29.20380479                                    
%ENDBLOCK LATTICE_CART                                                          
%BLOCK POSITIONS_ABS                                                            
ang                                                                             
Fe    14.939129    16.424752    13.816581                                       
O    14.982030    14.440405    13.634902                                        
O    16.215503    17.253428    12.843121                                        
O    13.298986    17.139652    13.652316                                        
C    14.240203    13.594095    12.747200                                        
C    16.294117    18.287722    11.891337                                        
C    12.093981    17.515481    14.270949                                        
C    14.953418    12.251789    12.671628                                        
H    15.972693    12.378147    12.301481                                        
H    14.424548    11.574237    11.997699                                        
H    14.993362    11.778338    13.656584                                        
C    12.827335    13.416477    13.283612                                        
H    12.854553    13.015186    14.298673                                        
H    12.258615    12.733448    12.647913                                        
H    12.310309    14.377076    13.302680                                        
C    14.216233    14.258505    11.379186                                        
H    13.700158    15.221231    11.428664                                        
H    13.686496    13.632350    10.657619                                        
H    15.232626    14.424021    11.015954                                        
C    17.721503    18.301397    11.354316                                        
H    18.429303    18.483625    12.165836                                        
H    17.851620    19.080807    10.599168                                        
H    17.960984    17.336168    10.903047                                        
C    15.969076    19.617745    12.565311                                        
H    14.955537    19.593698    12.972861                                        
H    16.035564    20.446172    11.855402                                        
H    16.670082    19.809390    13.381219                                        
C    15.307677    18.022401    10.757868                                        
H    15.530987    17.066921    10.277768                                        
H    15.362789    18.807989    10.000000                                        
H    14.286836    17.988344    11.146193                                        
C    11.877207    16.694706    15.537880                                        
H    11.833302    15.629166    15.304488                                        
H    10.944021    16.977738    16.031167                                        
H    12.698618    16.850716    16.240531                                        
C    10.960624    17.269535    13.278861                                        
H    11.134684    17.836592    12.362003                                        
H    10.000000    17.576298    13.699946                                        
H    10.899007    16.210423    13.020564                                        
C    12.166779    19.002066    14.608709                                        
H    12.988473    19.197028    15.300921                                        
H    11.238160    19.343085    15.073314                                        
H    12.333326    19.587385    13.701728                                        
Fe    15.683899    14.021476    15.428130                                       
O    15.641030    16.005824    15.609797                                        
O    14.407517    13.192794    16.401573                                        
O    17.324042    13.306584    15.592436                                        
C    16.382951    16.852114    16.497429                                        
C    14.328893    12.158459    17.353312                                        
C    18.529187    12.931059    14.973897                                        
C    15.669781    18.194440    16.573052                                        
H    14.650530    18.068112    16.943277                                        
H    16.198721    18.871980    17.246937                                        
H    15.629774    18.667888    15.588097                                        
C    17.795771    17.029673    15.960868                                        
H    17.768460    17.430975    14.945813                                        
H    18.364586    17.712672    16.596512                                        
H    18.312753    16.069051    15.941733                                        
C    16.407030    16.187710    17.865443                                        
H    16.923079    15.224972    17.815921                                        
H    16.936847    16.813855    18.586959                                        
H    15.390667    16.022217    18.228769                                        
C    12.901513    12.144792    17.890347                                        
H    12.193700    11.962614    17.078828                                        
H    12.771388    11.365352    18.645463                                        
H    12.662059    13.110007    18.341662                                        
C    14.653894    10.828455    16.679279                                        
H    15.667427    10.852492    16.271717                                        
H    14.587391    10.000000    17.389154                                        
H    13.952871    10.636862    15.863373                                        
C    15.315350    12.423712    18.486782                                        
H    15.092067    13.379181    18.966917                                        
H    15.260223    11.638098    19.244622                                        
H    16.336189    12.457754    18.098451                                        
C    18.746332    13.752605    13.707532                                        
H    18.790207    14.818002    13.941596                                        
H    19.679640    13.469848    13.214319                                        
H    17.925104    13.597055    13.004568                                        
C    19.662297    13.176353    15.966428                                        
H    19.487968    12.608753    16.882899                                        
H    20.623015    12.869794    15.545409                                        
H    19.723904    14.235307    16.225379                                        
C    18.456409    11.444682    14.635219                                        
H    17.634895    11.250181    13.942663                                        
H    19.385138    11.103900    14.170660                                        
H    18.289585    10.858821    15.541799                                        
%ENDBLOCK POSITIONS_ABS                                                         
%BLOCK SPECIES                                                                  
C C 6 -1 10.0                                                                   
Fe Fe 26 -1 10.0                                                                
H H 1 -1 10.0                                                                   
O O 8 -1 10.0                                                                   
%ENDBLOCK SPECIES                                                               
%BLOCK SPECIES_POT                                                              
C C.PBE-paw.abinit                                                              
Fe Fe.PBE-paw.abinit                                                            
H H.PBE-paw.abinit                                                              
O O.PBE-paw.abinit                                                              
%ENDBLOCK SPECIES_POT                                                           

--------------------------------------------------------------------------------
-------------------------------- END INPUT FILE --------------------------------
--------------------------------------------------------------------------------


 
 ESDF WARNING(1): "charge" (esdf_physical) has no units. Assume "e".
<<<<<<<<<<<<<<<<<<<<<<<<<<<<<<<<< Full system >>>>>>>>>>>>>>>>>>>>>>>>>>>>>>>>>>
<<<<<<<<<<<<<<<<<<<<<<<<<<< PAW Dataset information >>>>>>>>>>>>>>>>>>>>>>>>>>>
File: Fe.PBE-paw.abinit; rc = 2.12 bohr; shape type =  2; rshape = 1.81 bohr;
  Atomic number: 26;  ionic charge: 16.000000
    Partial Wave 1: l = 0
    Partial Wave 2: l = 0
    Partial Wave 3: l = 1
    Partial Wave 4: l = 1
    Partial Wave 5: l = 2
    Partial Wave 6: l = 2
  Core charge supplied for Nonlinear Core Corrections
File: O.PBE-paw.abinit; rc = 1.41 bohr; shape type =  2; rshape = 1.20 bohr;
  Atomic number:  8;  ionic charge:  6.000000
    Partial Wave 1: l = 0
    Partial Wave 2: l = 0
    Partial Wave 3: l = 1
    Partial Wave 4: l = 1
  Core charge supplied for Nonlinear Core Corrections
File: C.PBE-paw.abinit; rc = 1.51 bohr; shape type =  2; rshape = 1.30 bohr;
  Atomic number:  6;  ionic charge:  4.000000
    Partial Wave 1: l = 0
    Partial Wave 2: l = 0
    Partial Wave 3: l = 1
    Partial Wave 4: l = 1
  Core charge supplied for Nonlinear Core Corrections
File: H.PBE-paw.abinit; rc = 0.90 bohr; shape type =  2; rshape = 0.80 bohr;
  Atomic number:  1;  ionic charge:  1.000000
    Partial Wave 1: l = 0
    Partial Wave 2: l = 0
    Partial Wave 3: l = 1
<<<<<<<<<<<<<<<<<<<<<<<<<<<<<<<<<<<<<<< >>>>>>>>>>>>>>>>>>>>>>>>>>>>>>>>>>>>>>>

-------------------------- Atom counting information ---------------------------
Symbol    Natoms    Nngwfs    Nprojs
  Fe         2        26        36
  O          6        24        48
  C         24        96       192
  H         54        54       270
.......   ......    ......    ......
Totals:     86       200       546
--------------------------------------------------------------------------------

=============================== PSINC grid sizes ===============================
                      Simulation cell:  117 x 117 x 117
                              FFT-box:  117 x 117 x 117
                                  PPD:    9 x   9 x   1
Grid space d1=  0.486287150382a0 (KE cutoff=  32.12317Eh = 874.11597eV)
Grid space d2=  0.491222965483a0 (KE cutoff=  31.48087Eh = 856.63796eV)
Grid space d3=  0.471685411461a0 (KE cutoff=  34.14280Eh = 929.07282eV)
================================================================================

********************* Fourier parallelisation information **********************
       Coarse grid (whole simulation cell) dimensions:    117   117   117
          Real-space ('12') slabs/proc (min max mean):     19    20    19
         Recip-space ('23') slabs/proc (min max mean):      9    10     9
********************************************************************************

********************* Fourier parallelisation information **********************
       Double grid (whole simulation cell) dimensions:    234   234   234
          Real-space ('12') slabs/proc (min max mean):     39    39    39
         Recip-space ('23') slabs/proc (min max mean):     19    20    19
********************************************************************************

********************* Fourier parallelisation information **********************
         Fine grid (whole simulation cell) dimensions:    468   468   468
          Real-space ('12') slabs/proc (min max mean):     78    78    78
         Recip-space ('23') slabs/proc (min max mean):     39    40    39
********************************************************************************

Atom SCF Calculation for C  : Z (AE atom) =   6 : Z (PS atom) =   4
Config String: 2s2.0 2p2.0
Orbitals (num,occ):  2     2.00 2.00
Orbitals   (num,l):  2        0    1
Real-space Grid (nr,dr,rmax): 1503    0.0066577896   10.0000000000
Spherical Bessel Basis (nsws,lmax,cutoff):   37    2  176.3967570603
Confining potential (l,width,scale):  0    3.0000000000  100.0000000000
Confining potential (l,width,scale):  1    3.0000000000  100.0000000000
  1         -5.4381308884   -1.2721298092    4.5135250045   -1.9381135692
  2         -5.3849331102   -1.3649505469    4.4159511708   -1.9005879768
  3         -5.3930021612   -1.3849430624    4.3947033354   -1.8924421815
  4         -5.4001802281   -1.3891927246    4.3902388137   -1.8907518289
  5         -5.4037205329   -1.3915457087    4.3877695258   -1.8898885469
  6         -5.4055416859   -1.3928069742    4.3864477540   -1.8894519912
  7         -5.4065002767   -1.3934742451    4.3857498837   -1.8892319620
  8         -5.4070074727   -1.3938267709    4.3853820092   -1.8891207968
  9         -5.4072763209   -1.3940130896    4.3851880206   -1.8890645345
 10         -5.4074189962   -1.3941116277    4.3850856600   -1.8890360408
 11         -5.4074947717   -1.3941637823    4.3850316039   -1.8890216105
 12         -5.4075350443   -1.3941914082    4.3850030336   -1.8890143059
 13         -5.4075564617   -1.3942060527    4.3849879208   -1.8890106114
 14         -5.4075678586   -1.3942138217    4.3849799198   -1.8890087446
 15         -5.4075739267   -1.3942179465    4.3849756804   -1.8890078024
 16         -5.4075771595   -1.3942201380    4.3849734321   -1.8890073276
 17         -5.4075788827   -1.3942213034    4.3849722389   -1.8890070886
 18         -5.4075798017   -1.3942219235    4.3849716050   -1.8890069685
 19         -5.4075802921   -1.3942222537    4.3849712680   -1.8890069082
 20         -5.4075805539   -1.3942224296    4.3849710888   -1.8890068781
 21         -5.4075806938   -1.3942225235    4.3849709933   -1.8890068630
 22         -5.4075807686   -1.3942225735    4.3849709424   -1.8890068555
Atom SCF converged after  22 iterations to a total energy of     -5.40758077

Atom SCF Calculation for Fe : Z (AE atom) =  26 : Z (PS atom) =  16
Config String: 3s2.0 3p6.0 3d6.0 4s2.0 4p0.0
Orbitals (num,occ):  5     2.00 6.00 6.00 2.00 0.00
Orbitals   (num,l):  5        0    1    2    0    1
Real-space Grid (nr,dr,rmax): 1503    0.0066577896   10.0000000000
Spherical Bessel Basis (nsws,lmax,cutoff):   37    4  176.3967570603
Confining potential (l,width,scale):  0    3.0000000000  100.0000000000
Confining potential (l,width,scale):  1    3.0000000000  100.0000000000
Confining potential (l,width,scale):  2    3.0000000000  100.0000000000
  1       -111.4005172118  -52.5575611559   72.2164000725   -4.0901868950
  2       -116.6635475262  -20.5601904919   91.7007084249   -2.2962490369
  3       -121.6156136875  -23.2753453277   92.4544705195   -2.7706732816
  4       -123.0066153699  -21.4164712440   94.7136519632   -2.9394413820
  5       -123.8168122141  -22.6370400734   94.1384349420   -3.0798102909
  6       -123.9055073486  -21.7222843370   94.9342614757   -3.0846520419
  7       -124.0956886241  -22.4138747628   94.4617720360   -3.1224050559
  8       -124.0492758687  -21.8887017510   94.8692044073   -3.1096545890
  9       -124.1222324005  -22.2877514631   94.5777385101   -3.1254730624
 10       -124.0894611846  -22.0431086758   94.7620026738   -3.1177312036
 11       -124.1066906466  -22.1417456915   94.6895757605   -3.1215019185
 12       -124.1027421480  -22.1090398813   94.7144439268   -3.1205307857
 13       -124.1039552528  -22.1131641559   94.7116547863   -3.1207645739
 14       -124.1041718268  -22.1127261003   94.7121170471   -3.1207931979
 15       -124.1043563153  -22.1126782042   94.7122440208   -3.1208211382
 16       -124.1044853288  -22.1126702816   94.7123114748   -3.1208409484
 17       -124.1045734258  -22.1126674103   94.7123551926   -3.1208545095
 18       -124.1046334193  -22.1126657134   94.7123845864   -3.1208637603
 19       -124.1046742816  -22.1126645462   94.7124045128   -3.1208700757
 20       -124.1047021281  -22.1126636961   94.7124180731   -3.1208743926
 21       -124.1047211147  -22.1126630559   94.7124273290   -3.1208773473
 22       -124.1047340666  -22.1126625637   94.7124336643   -3.1208793718
 23       -124.1047429056  -22.1126621807   94.7124380116   -3.1208807606
 24       -124.1047489402  -22.1126618812   94.7124410017   -3.1208817142
 25       -124.1047530616  -22.1126616468   94.7124430628   -3.1208823696
 26       -124.1047558771  -22.1126614637   94.7124444863   -3.1208828204
 27       -124.1047578011  -22.1126613212   94.7124454714   -3.1208831306
 28       -124.1047591161  -22.1126612109   94.7124461541   -3.1208833444
 29       -124.1047600152  -22.1126611259   94.7124466281   -3.1208834917
 30       -124.1047606300  -22.1126610607   94.7124469575   -3.1208835933
 31       -124.1047610504  -22.1126610110   94.7124471869   -3.1208836634
 32       -124.1047613380  -22.1126609733   94.7124473467   -3.1208837118
 33       -124.1047615347  -22.1126609447   94.7124474583   -3.1208837453
 34       -124.1047616693  -22.1126609232   94.7124475361   -3.1208837684
 35       -124.1047617614  -22.1126609071   94.7124475906   -3.1208837843
Atom SCF converged after  35 iterations to a total energy of   -124.10476176

Atom SCF Calculation for H  : Z (AE atom) =   1 : Z (PS atom) =   1
Config String: 1s1.0
Orbitals (num,occ):  1     1.00
Orbitals   (num,l):  1        0
Real-space Grid (nr,dr,rmax): 1503    0.0066577896   10.0000000000
Spherical Bessel Basis (nsws,lmax,cutoff):   37    2  176.3967570603
Confining potential (l,width,scale):  0    3.0000000000  100.0000000000
  1         -0.3348525927   -0.2401819449    0.2820953128   -0.2388448411
  2         -0.4038948821   -0.2405504229    0.2866889240   -0.2416217444
  3         -0.4360732773   -0.2390089543    0.2890729861   -0.2443653791
  4         -0.4497314704   -0.2383264046    0.2899315599   -0.2456060208
  5         -0.4551901081   -0.2381357631    0.2901452306   -0.2460489407
  6         -0.4573594294   -0.2381000300    0.2901742710   -0.2461947705
  7         -0.4582326910   -0.2381004501    0.2901659451   -0.2462415077
  8         -0.4585900702   -0.2381055523    0.2901559649   -0.2462564278
  9         -0.4587384807   -0.2381092319    0.2901497571   -0.2462612174
 10         -0.4588008132   -0.2381112609    0.2901465144   -0.2462627659
 11         -0.4588272086   -0.2381122698    0.2901449456   -0.2462632682
 12         -0.4588384507   -0.2381127465    0.2901442163   -0.2462634302
 13         -0.4588432580   -0.2381129655    0.2901438848   -0.2462634814
 14         -0.4588453195   -0.2381130645    0.2901437362   -0.2462634968
 15         -0.4588462053   -0.2381131088    0.2901436700   -0.2462635011
 16         -0.4588465865   -0.2381131284    0.2901436407   -0.2462635020
 17         -0.4588467508   -0.2381131372    0.2901436278   -0.2462635020
 18         -0.4588468216   -0.2381131410    0.2901436222   -0.2462635019
Atom SCF converged after  18 iterations to a total energy of     -0.45884682

Atom SCF Calculation for O  : Z (AE atom) =   8 : Z (PS atom) =   6
Config String: 2s2.0 2p4.0
Orbitals (num,occ):  2     2.00 4.00
Orbitals   (num,l):  2        0    1
Real-space Grid (nr,dr,rmax): 1503    0.0066577896   10.0000000000
Spherical Bessel Basis (nsws,lmax,cutoff):   37    2  176.3967570603
Confining potential (l,width,scale):  0    3.0000000000  100.0000000000
Confining potential (l,width,scale):  1    3.0000000000  100.0000000000
  1         -8.3209332552   -7.4828484739   10.1554312602   -2.1270270195
  2        -15.1405599232   -3.0474882742   13.6590820486   -2.5134754209
  3        -15.5174094640   -3.1101891961   13.6243211040   -2.6472956001
  4        -15.7606118231   -3.0805775314   13.6668776248   -2.7100307789
  5        -15.8308896490   -3.0881936416   13.6633910567   -2.7338682066
  6        -15.8678540393   -3.0862312957   13.6673103078   -2.7443897972
  7        -15.8801393942   -3.0873360689   13.6669183555   -2.7485230919
  8        -15.8859601688   -3.0872977830   13.6672813272   -2.7502957173
  9        -15.8880580832   -3.0874730763   13.6672320183   -2.7510066526
 10        -15.8889924584   -3.0874981416   13.6672623218   -2.7513066537
 11        -15.8893459980   -3.0875277929   13.6672548500   -2.7514284384
 12        -15.8894977936   -3.0875355600   13.6672566096   -2.7514793465
 13        -15.8895569380   -3.0875407304   13.6672553199   -2.7515001537
 14        -15.8895817884   -3.0875424467   13.6672552475   -2.7515088021
 15        -15.8895916441   -3.0875433561   13.6672550136   -2.7515123499
 16        -15.8895957327   -3.0875436929   13.6672549605   -2.7515138192
 17        -15.8895973717   -3.0875438525   13.6672549179   -2.7515144231
 18        -15.8895980466   -3.0875439149   13.6672549044   -2.7515146726
 19        -15.8895983189   -3.0875439428   13.6672548968   -2.7515147752
 20        -15.8895984306   -3.0875439540   13.6672548940   -2.7515148175
 21        -15.8895984758   -3.0875439588   13.6672548927   -2.7515148349
Atom SCF converged after  21 iterations to a total energy of    -15.88959848

Atom SCF Calculation for C  : Z (AE atom) =   6 : Z (PS atom) =   4
Config String: 2s2.0 2p2.0
Orbitals (num,occ):  2     2.00 2.00
Orbitals   (num,l):  2        0    1
Real-space Grid (nr,dr,rmax): 1503    0.0066577896   10.0000000000
Spherical Bessel Basis (nsws,lmax,cutoff):   37    2  176.3967570603
Confining potential (l,width,scale):  0    3.0000000000  100.0000000000
Confining potential (l,width,scale):  1    3.0000000000  100.0000000000
  1         -5.4381308884   -1.2721298092    4.5135250045   -1.9381135692
  2         -5.3849331102   -1.3649505469    4.4159511708   -1.9005879768
  3         -5.3930021612   -1.3849430624    4.3947033354   -1.8924421815
  4         -5.4001802281   -1.3891927246    4.3902388137   -1.8907518289
  5         -5.4037205329   -1.3915457087    4.3877695258   -1.8898885469
  6         -5.4055416859   -1.3928069742    4.3864477540   -1.8894519912
  7         -5.4065002767   -1.3934742451    4.3857498837   -1.8892319620
  8         -5.4070074727   -1.3938267709    4.3853820092   -1.8891207968
  9         -5.4072763209   -1.3940130896    4.3851880206   -1.8890645345
 10         -5.4074189962   -1.3941116277    4.3850856600   -1.8890360408
 11         -5.4074947717   -1.3941637823    4.3850316039   -1.8890216105
 12         -5.4075350443   -1.3941914082    4.3850030336   -1.8890143059
 13         -5.4075564617   -1.3942060527    4.3849879208   -1.8890106114
 14         -5.4075678586   -1.3942138217    4.3849799198   -1.8890087446
 15         -5.4075739267   -1.3942179465    4.3849756804   -1.8890078024
 16         -5.4075771595   -1.3942201380    4.3849734321   -1.8890073276
 17         -5.4075788827   -1.3942213034    4.3849722389   -1.8890070886
 18         -5.4075798017   -1.3942219235    4.3849716050   -1.8890069685
 19         -5.4075802921   -1.3942222537    4.3849712680   -1.8890069082
 20         -5.4075805539   -1.3942224296    4.3849710888   -1.8890068781
 21         -5.4075806938   -1.3942225235    4.3849709933   -1.8890068630
 22         -5.4075807686   -1.3942225735    4.3849709424   -1.8890068555
Atom SCF converged after  22 iterations to a total energy of     -5.40758077

Atom SCF Calculation for Fe : Z (AE atom) =  26 : Z (PS atom) =  16
Config String: 3s2.0 3p6.0 3d6.0 4s2.0 4p0.0
Orbitals (num,occ):  5     2.00 6.00 6.00 2.00 0.00
Orbitals   (num,l):  5        0    1    2    0    1
Real-space Grid (nr,dr,rmax): 1503    0.0066577896   10.0000000000
Spherical Bessel Basis (nsws,lmax,cutoff):   37    4  176.3967570603
Confining potential (l,width,scale):  0    3.0000000000  100.0000000000
Confining potential (l,width,scale):  1    3.0000000000  100.0000000000
Confining potential (l,width,scale):  2    3.0000000000  100.0000000000
  1       -111.4005172118  -52.5575611559   72.2164000725   -4.0901868950
  2       -116.6635475262  -20.5601904919   91.7007084249   -2.2962490369
  3       -121.6156136875  -23.2753453277   92.4544705195   -2.7706732816
  4       -123.0066153699  -21.4164712440   94.7136519632   -2.9394413820
  5       -123.8168122141  -22.6370400734   94.1384349420   -3.0798102909
  6       -123.9055073486  -21.7222843370   94.9342614757   -3.0846520419
  7       -124.0956886241  -22.4138747628   94.4617720360   -3.1224050559
  8       -124.0492758687  -21.8887017510   94.8692044073   -3.1096545890
  9       -124.1222324005  -22.2877514631   94.5777385101   -3.1254730624
 10       -124.0894611846  -22.0431086758   94.7620026738   -3.1177312036
 11       -124.1066906466  -22.1417456915   94.6895757605   -3.1215019185
 12       -124.1027421480  -22.1090398813   94.7144439268   -3.1205307857
 13       -124.1039552528  -22.1131641559   94.7116547863   -3.1207645739
 14       -124.1041718268  -22.1127261003   94.7121170471   -3.1207931979
 15       -124.1043563153  -22.1126782042   94.7122440208   -3.1208211382
 16       -124.1044853288  -22.1126702816   94.7123114748   -3.1208409484
 17       -124.1045734258  -22.1126674103   94.7123551926   -3.1208545095
 18       -124.1046334193  -22.1126657134   94.7123845864   -3.1208637603
 19       -124.1046742816  -22.1126645462   94.7124045128   -3.1208700757
 20       -124.1047021281  -22.1126636961   94.7124180731   -3.1208743926
 21       -124.1047211147  -22.1126630559   94.7124273290   -3.1208773473
 22       -124.1047340666  -22.1126625637   94.7124336643   -3.1208793718
 23       -124.1047429056  -22.1126621807   94.7124380116   -3.1208807606
 24       -124.1047489402  -22.1126618812   94.7124410017   -3.1208817142
 25       -124.1047530616  -22.1126616468   94.7124430628   -3.1208823696
 26       -124.1047558771  -22.1126614637   94.7124444863   -3.1208828204
 27       -124.1047578011  -22.1126613212   94.7124454714   -3.1208831306
 28       -124.1047591161  -22.1126612109   94.7124461541   -3.1208833444
 29       -124.1047600152  -22.1126611259   94.7124466281   -3.1208834917
 30       -124.1047606300  -22.1126610607   94.7124469575   -3.1208835933
 31       -124.1047610504  -22.1126610110   94.7124471869   -3.1208836634
 32       -124.1047613380  -22.1126609733   94.7124473467   -3.1208837118
 33       -124.1047615347  -22.1126609447   94.7124474583   -3.1208837453
 34       -124.1047616693  -22.1126609232   94.7124475361   -3.1208837684
 35       -124.1047617614  -22.1126609071   94.7124475906   -3.1208837843
Atom SCF converged after  35 iterations to a total energy of   -124.10476176

Atom SCF Calculation for H  : Z (AE atom) =   1 : Z (PS atom) =   1
Config String: 1s1.0
Orbitals (num,occ):  1     1.00
Orbitals   (num,l):  1        0
Real-space Grid (nr,dr,rmax): 1503    0.0066577896   10.0000000000
Spherical Bessel Basis (nsws,lmax,cutoff):   37    2  176.3967570603
Confining potential (l,width,scale):  0    3.0000000000  100.0000000000
  1         -0.3348525927   -0.2401819449    0.2820953128   -0.2388448411
  2         -0.4038948821   -0.2405504229    0.2866889240   -0.2416217444
  3         -0.4360732773   -0.2390089543    0.2890729861   -0.2443653791
  4         -0.4497314704   -0.2383264046    0.2899315599   -0.2456060208
  5         -0.4551901081   -0.2381357631    0.2901452306   -0.2460489407
  6         -0.4573594294   -0.2381000300    0.2901742710   -0.2461947705
  7         -0.4582326910   -0.2381004501    0.2901659451   -0.2462415077
  8         -0.4585900702   -0.2381055523    0.2901559649   -0.2462564278
  9         -0.4587384807   -0.2381092319    0.2901497571   -0.2462612174
 10         -0.4588008132   -0.2381112609    0.2901465144   -0.2462627659
 11         -0.4588272086   -0.2381122698    0.2901449456   -0.2462632682
 12         -0.4588384507   -0.2381127465    0.2901442163   -0.2462634302
 13         -0.4588432580   -0.2381129655    0.2901438848   -0.2462634814
 14         -0.4588453195   -0.2381130645    0.2901437362   -0.2462634968
 15         -0.4588462053   -0.2381131088    0.2901436700   -0.2462635011
 16         -0.4588465865   -0.2381131284    0.2901436407   -0.2462635020
 17         -0.4588467508   -0.2381131372    0.2901436278   -0.2462635020
 18         -0.4588468216   -0.2381131410    0.2901436222   -0.2462635019
Atom SCF converged after  18 iterations to a total energy of     -0.45884682

Atom SCF Calculation for O  : Z (AE atom) =   8 : Z (PS atom) =   6
Config String: 2s2.0 2p4.0
Orbitals (num,occ):  2     2.00 4.00
Orbitals   (num,l):  2        0    1
Real-space Grid (nr,dr,rmax): 1503    0.0066577896   10.0000000000
Spherical Bessel Basis (nsws,lmax,cutoff):   37    2  176.3967570603
Confining potential (l,width,scale):  0    3.0000000000  100.0000000000
Confining potential (l,width,scale):  1    3.0000000000  100.0000000000
  1         -8.3209332552   -7.4828484739   10.1554312602   -2.1270270195
  2        -15.1405599232   -3.0474882742   13.6590820486   -2.5134754209
  3        -15.5174094640   -3.1101891961   13.6243211040   -2.6472956001
  4        -15.7606118231   -3.0805775314   13.6668776248   -2.7100307789
  5        -15.8308896490   -3.0881936416   13.6633910567   -2.7338682066
  6        -15.8678540393   -3.0862312957   13.6673103078   -2.7443897972
  7        -15.8801393942   -3.0873360689   13.6669183555   -2.7485230919
  8        -15.8859601688   -3.0872977830   13.6672813272   -2.7502957173
  9        -15.8880580832   -3.0874730763   13.6672320183   -2.7510066526
 10        -15.8889924584   -3.0874981416   13.6672623218   -2.7513066537
 11        -15.8893459980   -3.0875277929   13.6672548500   -2.7514284384
 12        -15.8894977936   -3.0875355600   13.6672566096   -2.7514793465
 13        -15.8895569380   -3.0875407304   13.6672553199   -2.7515001537
 14        -15.8895817884   -3.0875424467   13.6672552475   -2.7515088021
 15        -15.8895916441   -3.0875433561   13.6672550136   -2.7515123499
 16        -15.8895957327   -3.0875436929   13.6672549605   -2.7515138192
 17        -15.8895973717   -3.0875438525   13.6672549179   -2.7515144231
 18        -15.8895980466   -3.0875439149   13.6672549044   -2.7515146726
 19        -15.8895983189   -3.0875439428   13.6672548968   -2.7515147752
 20        -15.8895984306   -3.0875439540   13.6672548940   -2.7515148175
 21        -15.8895984758   -3.0875439588   13.6672548927   -2.7515148349
Atom SCF converged after  21 iterations to a total energy of    -15.88959848

BC: Task: SINGLEPOINT
BC: +++++++++++++++ Summary of boundary conditions ++++++++++++++
BC: |       Component       |     Keyword     |   Periodicity   |
BC: |                       |                 |     X  Y  Z [1] |
BC: |-----------------------------------------------------------|
BC: | Ion-ion               | ion_ion_bc [2]  |     P  P  P     |
BC: | Local pseudopotential | pspot_bc [3]    |     P  P  P     |
BC: +++++++++++++++++++++++++++++++++++++++++++++++++++++++++++++
BC: P: Periodic, O: Open.
BC: [1] Not strictly along X, Y, Z but rather along lattice vectors A1, A2, A3.
BC: [2] Also affected by: pbc_correction_cutoff, cutoff_coulomb_type,
BC:     is_smeared_ion_rep, is_implicit_solvent, openbc_ion_ion.
BC: [3] Also affected by: is_smeared_ion_rep, is_implicit_solvent, openbc_pspot.

Determining parallel strategy ...
... using space-filling curve
... NGWF load balancing: max     34;  min     33;  average     33
... Projector load balancing: max     98;  min     82;  average     91
... Hubbard Projector load balancing: max      5;  min      0;  average      2
... done
Calculating Ewald energy ...
              Ewald: real-space energy =         1422.661173
        Ewald: reciprocal-space energy =          476.442789
         Ewald: (sum_charge)**2 energy =           95.262728
         Ewald: (sum_charge**2) energy =           43.349870
                          Ewald energy =         1760.491365
Basis initialisation ...
... NGWF spheres initialised
... Projector spheres initialised
... Hubbard Projector spheres initialised
... NGWF tight boxes initialised
... Projector tight boxes initialised
... Tight-boxes gathered
... NGWF basis size (local,global):        222607      1341776
... PAW projector initialisation
... done

============================= Charge Augmentation ==============================
                           Aug box size:   39 x  39 x  39
================================================================================
... Hubbard projector initialisation

========================== Sparse matrix information ===========================
                        Overlap matrix filling:  99.47%
                        Density kernel filling: 100.00% (known to be dense)
              NGWF-Proj overlap matrix filling:  58.71%
                    Aug Overlap matrix filling:  99.95%
      NGWF-Hubbard Proj overlap matrix filling: 100.00%
                             VW matrix filling: 100.00%
                    Hamiltonian matrix filling: 100.00%
                  NGWF diagonal matrix filling:   2.18%
                             KS matrix filling: 100.00% 
                           KSKS matrix filling: 100.00% 
================================================================================

Sparse matrix initialisation ...
 done
NGWF initialisation ... done
============ Calculation of NGWF S^-1 using Hotelling algorithm ================ 
     Iteration  |  Spin  |  Frobenius norm and Maximum abs value (of I-S*S_n^-1)
         1           1      0.13956409E+02     0.99246764E+00
         2           1      0.13786773E+02     0.98499505E+00
         3           1      0.13487359E+02     0.97022670E+00
         4           1      0.13005344E+02     0.94138071E+00
         5           1      0.12313547E+02     0.88633088E+00
         6           1      0.11414682E+02     0.78601388E+00
         7           1      0.10350622E+02     0.71132533E+00
         8           1      0.92810405E+01     0.66697525E+00
         9           1      0.83609055E+01     0.62607350E+00
        10           1      0.73945226E+01     0.56790550E+00
        11           1      0.60039110E+01     0.47662448E+00
        12           1      0.41291676E+01     0.34985038E+00
        13           1      0.21675800E+01     0.19707056E+00
        14           1      0.82971170E+00     0.12218427E+00
        15           1      0.32610504E+00     0.62528902E-01
        16           1      0.10072797E+00     0.19314021E-01
        17           1      0.10142589E-01     0.19405286E-02
        18           1      0.10287210E-03     0.19681422E-04
        19           1      0.10582668E-07     0.20246687E-08
        20           1      0.17727327E-13     0.24858587E-14
================================================================================
 done

################################################################################
DFT+U information on atom      1 of Hubbard species Fe  
################################################################################
Using the on-atom contravariant metric, the NGWF hydrogenic character
| < \phi | \psi > |**2 matrix of Hubbard site      1 is 
  m_l =   -2          -1           0           1           2         SUM
  0.00000000  0.00000000 -0.00000000 -0.00000000  0.00000000 -0.00000000
  0.00000000  0.00000000 -0.00000000  0.00000000 -0.00000001 -0.00000001
  0.00000000  0.00000000  0.00000000  0.00000000  0.00000000  0.00000000
 -0.00000000  0.00000000 -0.00000000  0.00000000 -0.00000000 -0.00000000
  0.25486328  0.00000000  0.00000000 -0.00000000  0.00000000  0.25486328
  0.00000000  0.25483831  0.00000000 -0.00000000 -0.00000000  0.25483831
  0.00000000  0.00000000  0.25571681 -0.00000000  0.00000000  0.25571681
 -0.00000000 -0.00000000 -0.00000000  0.25479329  0.00000000  0.25479329
  0.00000000 -0.00000000  0.00000000  0.00000000  0.25620206  0.25620206
 -0.00000000 -0.00000000 -0.00000000  0.00000000  0.00000000 -0.00000000
  0.00000000  0.00000000 -0.00000000 -0.00000000  0.00000001  0.00000001
 -0.00000000  0.00000000 -0.00000000  0.00000000 -0.00000000 -0.00000000
  0.00000000 -0.00000000  0.00000000 -0.00000000  0.00000000  0.00000000
Total hydrogenic projection of NGWFs on this atom             1.27641376
################################################################################


################################################################################
DFT+U information on atom      2 of Hubbard species Fe  
################################################################################
Using the on-atom contravariant metric, the NGWF hydrogenic character
| < \phi | \psi > |**2 matrix of Hubbard site      2 is 
  m_l =   -2          -1           0           1           2         SUM
 -0.00000000  0.00000000 -0.00000000  0.00000000 -0.00000000 -0.00000000
  0.00000000  0.00000000 -0.00000000  0.00000000 -0.00000000 -0.00000000
  0.00000000  0.00000000  0.00000000 -0.00000000 -0.00000000  0.00000000
 -0.00000000  0.00000000 -0.00000000  0.00000000 -0.00000000 -0.00000000
  0.25483852 -0.00000000  0.00000000 -0.00000000  0.00000000  0.25483852
 -0.00000000  0.25476241  0.00000000 -0.00000000 -0.00000000  0.25476241
  0.00000000  0.00000000  0.25590316 -0.00000000  0.00000000  0.25590316
 -0.00000000 -0.00000000 -0.00000000  0.25475611  0.00000000  0.25475611
  0.00000000 -0.00000000  0.00000000  0.00000000  0.25621681  0.25621681
  0.00000000 -0.00000000 -0.00000000 -0.00000000 -0.00000000 -0.00000000
  0.00000000 -0.00000000 -0.00000000 -0.00000000  0.00000000  0.00000000
 -0.00000000  0.00000000 -0.00000000  0.00000000 -0.00000000 -0.00000000
  0.00000000 -0.00000000  0.00000000 -0.00000000  0.00000000  0.00000000
Total hydrogenic projection of NGWFs on this atom             1.27647701
################################################################################


################################################################################
Using the subspace contravariant metric, the NGWF hydrogenic character
| < \phi | \psi > |**2 matrix of Hubbard site      1 is 
  m_l =   -2          -1           0           1           2         SUM
  0.25486308  0.00000000  0.00000000 -0.00000000  0.00000000  0.25486308
  0.00000000  0.25483825  0.00000000 -0.00000000 -0.00000000  0.25483825
  0.00000000  0.00000000  0.25571668 -0.00000000  0.00000000  0.25571668
 -0.00000000 -0.00000000 -0.00000000  0.25479314  0.00000000  0.25479314
  0.00000000 -0.00000000  0.00000000  0.00000000  0.25620186  0.25620186
Total hydrogenic projection of NGWFs on this correlated site  1.27641302
################################################################################


################################################################################
Using the subspace contravariant metric, the NGWF hydrogenic character
| < \phi | \psi > |**2 matrix of Hubbard site      2 is 
  m_l =   -2          -1           0           1           2         SUM
  0.25483832 -0.00000000  0.00000000 -0.00000000  0.00000000  0.25483832
 -0.00000000  0.25476235  0.00000000 -0.00000000 -0.00000000  0.25476235
  0.00000000  0.00000000  0.25590305 -0.00000000  0.00000000  0.25590305
 -0.00000000 -0.00000000 -0.00000000  0.25475596  0.00000000  0.25475596
  0.00000000 -0.00000000  0.00000000  0.00000000  0.25621663  0.25621663
Total hydrogenic projection of NGWFs on this correlated site  1.27647632
################################################################################

Calculating core density ...
================================= Core Density =================================
               Core den box size:   39 x  39 x  39
================================================================================
 ... done
Density renormalisation, spin  1 ...
Target Charge:   114.000000000000 ; Input Charge:   109.001165298117
Density renormalisation, spin  2 ...
Target Charge:   104.000000000000 ; Input Charge:   109.001165298117
Density kernel initialisation
 
======= Optimisation of K by Palser-Manolopoulos canonical purification ======== 
         Iteration  |  Band structure energy |    c_n   
               1         -49.17060810990993    0.5609196
               2         -51.58898165944063    0.5565375
               3         -54.54265182129203    0.5499768
               4         -58.07848397747077    0.5411679
               5         -62.35784827434885    0.5286065
               6         -67.41029229041268    0.5107570
               7         -72.71751612772391    0.4893835
               8         -76.93956586904673    0.4619077
               9         -79.08728138895199    0.4250264
              10         -79.80039424285027    0.4370784
              11         -80.08321785189837    0.4805520
              12         -80.20183902655113    0.5023928
              13         -80.22279193037650    0.5018557
              14         -80.22370581831129    0.5000289
              15         -80.22371489762872    0.5000026
              16         -80.22371489897546    0.5000026
Termination criterion satisfied: band energy change below threshold.
Final occupancy bounds: [    0.00000000000000:    1.00000000000000]
Closest occupancy to 0.5:     1.00000000000000
================================================================================
 
======= Optimisation of K by Palser-Manolopoulos canonical purification ======== 
         Iteration  |  Band structure energy |    c_n   
               1         -46.80726071863754    0.5114839
               2         -49.87392871662024    0.5070356
               3         -53.61399941706640    0.5010480
               4         -58.00529346151863    0.4960306
               5         -63.15205600021062    0.4932529
               6         -68.66845770103400    0.5029033
               7         -73.44224849310946    0.5571605
               8         -76.00563850630880    0.6650559
               9         -76.78030980369996    0.7100272
              10         -77.06204342489521    0.6727294
              11         -77.30420302650347    0.6224716
              12         -77.51119454097358    0.5839753
              13         -77.63739377183737    0.5601747
              14         -77.68715657286421    0.5337156
              15         -77.70059266105859    0.5082261
              16         -77.70259498262229    0.5003339
              17         -77.70266515769812    0.5000005
              18         -77.70266525614140    0.5195318
              19         -77.70266525614159    0.5195318
Termination criterion satisfied: band energy change below threshold.
Final occupancy bounds: [    0.00000000000000:    1.00000000000000]
Closest occupancy to 0.5:     1.00000000000000
================================================================================

Writing density kernel to file "Fe2_tert-butoxide_6_HighSpin.dkn" ... done

>>> Optimising kernel for current NGWFs:
   Initial electron number for spin 1:     114.00000000
   Initial electron number for spin 2:     104.00000000
     Final electron number for spin 1:     114.00000000
     Final electron number for spin 2:     104.00000000

=================== Penalty functional idempotency correction ==================
 RMS occupancy error at iteration   1:  0.000000 (step -0.5000 Ne1=    114.0000)
                                                               Ne2=    104.0000
            Final RMS occupancy error   :  0.000000 (Ne1=    114.0000)
                                                     Ne2=    104.0000
            Final occupancy bounds spin 1: [  0.000,  1.000]
            Final occupancy bounds spin 2: [  0.000,  1.000]
================================================================================

................................................................................
<<<<<<<<<<<<<< LNV (Original version) density kernel optimisation >>>>>>>>>>>>>>
~~~~~~~~~~~~~~~~~~~~~~~~~~~~~~~~~~~~~~~~~~~~~~~~~~~~~~~~~~~~~~~~~~~~~~~~~~~~~~~~
   iter  |      energy (Eh)       | rms gradient |  commutator  |   dE (Eh)

################################################################################
DFT+U information on atom      1 of Hubbard species Fe  
################################################################################
Occupancy matrix of Hubbard site      1 and spin      1 is 
  m_l =   -2          -1           0           1           2
  0.99087793 -0.00072695 -0.00343536  0.00599879  0.00209105
 -0.00072665  0.99218868 -0.00112054 -0.00232443  0.00404935
 -0.00343421 -0.00112035  0.99153951 -0.00222057  0.00360568
  0.00599936 -0.00232409 -0.00222157  0.99045799  0.00175225
  0.00209144  0.00404939  0.00360728  0.00175196  0.98919586
################################################################################
Occupancy matrix of Hubbard site      1 and spin      2 is 
  m_l =   -2          -1           0           1           2
  0.23139063 -0.05111633  0.00660535 -0.02365168 -0.01985585
 -0.05112344  0.13102588 -0.04011789  0.00907436  0.00515074
  0.00660658 -0.04010058  0.21349461  0.01499404 -0.00097785
 -0.02365876  0.00907422  0.01499935  0.22030514 -0.00406398
 -0.01985509  0.00516014 -0.00097366 -0.00406631  0.24132612
################################################################################
Total occupancy of Hubbard site      1 is         5.99180235 e
Local magnetic moment of Hubbard site      1 is   3.91671761 mu_B
DFT+U energy of Hubbard site      1 is            0.06236080 Ha
################################################################################


################################################################################
DFT+U information on atom      2 of Hubbard species Fe  
################################################################################
Occupancy matrix of Hubbard site      2 and spin      1 is 
  m_l =   -2          -1           0           1           2
  0.99087734 -0.00072697 -0.00343359  0.00600002  0.00208955
 -0.00072659  0.99218788 -0.00112112 -0.00232450  0.00404750
 -0.00343447 -0.00112183  0.99154217 -0.00222138  0.00360676
  0.00600034 -0.00232439 -0.00222094  0.99045785  0.00175215
  0.00209013  0.00404832  0.00360639  0.00175207  0.98920229
################################################################################
Occupancy matrix of Hubbard site      2 and spin      2 is 
  m_l =   -2          -1           0           1           2
  0.23137574 -0.05112091  0.00659894 -0.02364860 -0.01985818
 -0.05112060  0.13102115 -0.04010674  0.00907636  0.00515197
  0.00660416 -0.04011859  0.21352792  0.01499738 -0.00098657
 -0.02365452  0.00907719  0.01499329  0.22030882 -0.00405294
 -0.01985814  0.00516385 -0.00098111 -0.00405595  0.24132520
################################################################################
Total occupancy of Hubbard site      2 is         5.99182636 e
Local magnetic moment of Hubbard site      2 is   3.91670869 mu_B
DFT+U energy of Hubbard site      2 is            0.06236090 Ha
################################################################################

      ideal mu1:      -0.644288090872
      ideal mu2:      -0.633319809184
             Q0:        -511.545438687279
             G0:      -4.385064419190
   RMS gradient:       0.014807201659

################################################################################
DFT+U information on atom      1 of Hubbard species Fe  
################################################################################
Occupancy matrix of Hubbard site      1 and spin      1 is 
  m_l =   -2          -1           0           1           2
  0.99926588 -0.00036667 -0.00034371  0.00043029  0.00011807
 -0.00036670  0.99865156 -0.00036301 -0.00020031  0.00031020
 -0.00034358 -0.00036286  0.99931696 -0.00017807  0.00046678
  0.00043031 -0.00020028 -0.00017815  0.99916239  0.00025543
  0.00011811  0.00031026  0.00046699  0.00025539  0.99893185
################################################################################
Occupancy matrix of Hubbard site      1 and spin      2 is 
  m_l =   -2          -1           0           1           2
  0.35470894 -0.08146833  0.00307909 -0.02536324 -0.02473471
 -0.08147884  0.19681026 -0.06311229  0.01358118  0.01373894
  0.00308268 -0.06308556  0.32450430  0.01566637 -0.00210873
 -0.02537282  0.01358117  0.01567112  0.33853284 -0.00685540
 -0.02473270  0.01375370 -0.00210219 -0.00685873  0.36534225
################################################################################
Total occupancy of Hubbard site      1 is         6.57522724 e
Local magnetic moment of Hubbard site      1 is   3.41543006 mu_B
DFT+U energy of Hubbard site      1 is            0.07655023 Ha
################################################################################


################################################################################
DFT+U information on atom      2 of Hubbard species Fe  
################################################################################
Occupancy matrix of Hubbard site      2 and spin      1 is 
  m_l =   -2          -1           0           1           2
  0.99926671 -0.00036646 -0.00034300  0.00042997  0.00011744
 -0.00036644  0.99865259 -0.00036277 -0.00019986  0.00030898
 -0.00034307 -0.00036289  0.99931836 -0.00017804  0.00046719
  0.00042997 -0.00019985 -0.00017799  0.99916325  0.00025552
  0.00011749  0.00030911  0.00046714  0.00025550  0.99893416
################################################################################
Occupancy matrix of Hubbard site      2 and spin      2 is 
  m_l =   -2          -1           0           1           2
  0.35472726 -0.08149189  0.00306403 -0.02536437 -0.02474482
 -0.08149065  0.19684486 -0.06310413  0.01359268  0.01374626
  0.00306953 -0.06312341  0.32458175  0.01566198 -0.00211945
 -0.02537263  0.01359415  0.01565688  0.33860239 -0.00684230
 -0.02474350  0.01376597 -0.00211066 -0.00684656  0.36536744
################################################################################
Total occupancy of Hubbard site      2 is         6.57545876 e
Local magnetic moment of Hubbard site      2 is   3.41521137 mu_B
DFT+U energy of Hubbard site      2 is            0.07655505 Ha
################################################################################

     Trial step:       0.500000000000
             Q1:        -511.961747421683
 Quadratic coef:       1.776223475191
 Linear coef   :      -2.192532209595
           Qmin:        -512.222042385695
Quadratic minimum step length (  0.308594644793) accepted
    Initial Ne1:     114.00000000
    Initial Ne2:     104.00000000
      Final Ne1:     114.00000000
      Final Ne2:     104.00000000

=================== Penalty functional idempotency correction ==================
 RMS occupancy error at iteration   1:  0.003265 (step -0.4883 Ne1=    114.0000)
                                                               Ne2=    104.0000
 RMS occupancy error at iteration   2:  0.000032 (step -0.5000 Ne1=    114.0000)
                                                               Ne2=    104.0000
            Final RMS occupancy error   :  0.000000 (Ne1=    114.0000)
                                                     Ne2=    104.0000
            Final occupancy bounds spin 1: [  0.000,  1.000]
            Final occupancy bounds spin 2: [  0.000,  1.000]
================================================================================

    1        -5.115454386873E+02     1.4807E-02     9.6833E-03

################################################################################
DFT+U information on atom      1 of Hubbard species Fe  
################################################################################
Occupancy matrix of Hubbard site      1 and spin      1 is 
  m_l =   -2          -1           0           1           2
  0.99771609 -0.00045913 -0.00095905  0.00143643  0.00056259
 -0.00045911  0.99732317 -0.00055659 -0.00072396  0.00119969
 -0.00095873 -0.00055643  0.99780924 -0.00059569  0.00099101
  0.00143652 -0.00072389 -0.00059596  0.99748121  0.00040820
  0.00056271  0.00119976  0.00099147  0.00040814  0.99729858
################################################################################
Occupancy matrix of Hubbard site      1 and spin      2 is 
  m_l =   -2          -1           0           1           2
  0.30732499 -0.07001222  0.00484158 -0.02520359 -0.02326107
 -0.07002147  0.17129899 -0.05422875  0.01204299  0.01031723
  0.00484418 -0.05420566  0.28144249  0.01559178 -0.00185187
 -0.02521232  0.01204295  0.01559682  0.29270266 -0.00586291
 -0.02325960  0.01032993 -0.00184629 -0.00586588  0.31750773
################################################################################
Total occupancy of Hubbard site      1 is         6.35790515 e
Local magnetic moment of Hubbard site      1 is   3.61735143 mu_B
DFT+U energy of Hubbard site      1 is            0.07158522 Ha
################################################################################


################################################################################
DFT+U information on atom      2 of Hubbard species Fe  
################################################################################
Occupancy matrix of Hubbard site      2 and spin      1 is 
  m_l =   -2          -1           0           1           2
  0.99771783 -0.00045907 -0.00095793  0.00143548  0.00056177
 -0.00045900  0.99732480 -0.00055661 -0.00072323  0.00119778
 -0.00095818 -0.00055687  0.99781213 -0.00059528  0.00099098
  0.00143551 -0.00072323 -0.00059516  0.99748336  0.00040762
  0.00056194  0.00119810  0.00099091  0.00040761  0.99730337
################################################################################
Occupancy matrix of Hubbard site      2 and spin      2 is 
  m_l =   -2          -1           0           1           2
  0.30733073 -0.07002900  0.00482979 -0.02520367 -0.02326810
 -0.07002812  0.17131830 -0.05421970  0.01205120  0.01032238
  0.00483534 -0.05423611  0.28150323  0.01559047 -0.00186189
 -0.02521112  0.01205246  0.01558572  0.29274742 -0.00585066
 -0.02326736  0.01033904 -0.00185434 -0.00585448  0.31752288
################################################################################
Total occupancy of Hubbard site      2 is         6.35806404 e
Local magnetic moment of Hubbard site      2 is   3.61721893 mu_B
DFT+U energy of Hubbard site      2 is            0.07158862 Ha
################################################################################

      ideal mu1:      -0.673048811256
      ideal mu2:      -0.678511169543
             Q0:        -512.233619967707
             G0:      -0.288196097100
   RMS gradient:       0.003779035649

################################################################################
DFT+U information on atom      1 of Hubbard species Fe  
################################################################################
Occupancy matrix of Hubbard site      1 and spin      1 is 
  m_l =   -2          -1           0           1           2
  0.99807954 -0.00034646 -0.00083059  0.00119754  0.00046919
 -0.00034645  0.99781145 -0.00053075 -0.00065075  0.00092056
 -0.00083031 -0.00053058  0.99837613 -0.00036698  0.00088381
  0.00119762 -0.00065070 -0.00036714  0.99799117  0.00033382
  0.00046929  0.00092064  0.00088423  0.00033376  0.99793679
################################################################################
Occupancy matrix of Hubbard site      1 and spin      2 is 
  m_l =   -2          -1           0           1           2
  0.32872018 -0.07776524  0.00155057 -0.02103720 -0.02286680
 -0.07777495  0.18022703 -0.06017721  0.01241602  0.01520409
  0.00155439 -0.06015192  0.29974998  0.01334429 -0.00152639
 -0.02104598  0.01241619  0.01334807  0.31306651 -0.00629179
 -0.02286477  0.01521800 -0.00151988 -0.00629509  0.33761048
################################################################################
Total occupancy of Hubbard site      1 is         6.44956925 e
Local magnetic moment of Hubbard site      1 is   3.53082090 mu_B
DFT+U energy of Hubbard site      1 is            0.07381368 Ha
################################################################################


################################################################################
DFT+U information on atom      2 of Hubbard species Fe  
################################################################################
Occupancy matrix of Hubbard site      2 and spin      1 is 
  m_l =   -2          -1           0           1           2
  0.99808171 -0.00034635 -0.00082927  0.00119641  0.00046817
 -0.00034629  0.99781320 -0.00053079 -0.00064993  0.00091818
 -0.00082948 -0.00053102  0.99837897 -0.00036661  0.00088378
  0.00119644 -0.00064994 -0.00036653  0.99799344  0.00033319
  0.00046832  0.00091845  0.00088372  0.00033318  0.99794213
################################################################################
Occupancy matrix of Hubbard site      2 and spin      2 is 
  m_l =   -2          -1           0           1           2
  0.32874696 -0.07778944  0.00153872 -0.02103668 -0.02287647
 -0.07778794  0.18026399 -0.06017294  0.01242531  0.01521137
  0.00154354 -0.06019158  0.29983530  0.01334045 -0.00153812
 -0.02104434  0.01242684  0.01333583  0.31314187 -0.00627832
 -0.02287504  0.01523038 -0.00152976 -0.00628245  0.33764675
################################################################################
Total occupancy of Hubbard site      2 is         6.44984431 e
Local magnetic moment of Hubbard site      2 is   3.53057458 mu_B
DFT+U energy of Hubbard site      2 is            0.07381967 Ha
################################################################################

     Trial step:       0.392806978548
             Q1:        -512.250537061413
 Quadratic coef:       0.096288344426
 Linear coef   :      -0.113205438131
           Qmin:        -512.266893650257
Quadratic minimum step length (  0.230910014979) accepted
    Initial Ne1:     113.99999893
    Initial Ne2:     103.99999891
      Final Ne1:     114.00000000
      Final Ne2:     104.00000000

=================== Penalty functional idempotency correction ==================
 RMS occupancy error at iteration   1:  0.000454 (step -0.4982 Ne1=    114.0000)
                                                               Ne2=    104.0000
 RMS occupancy error at iteration   2:  0.000001 (step -0.5000 Ne1=    114.0000)
                                                               Ne2=    104.0000
            Final RMS occupancy error   :  0.000000 (Ne1=    114.0000)
                                                     Ne2=    104.0000
            Final occupancy bounds spin 1: [  0.000,  1.000]
            Final occupancy bounds spin 2: [  0.000,  1.000]
================================================================================

    2        -5.122336199677E+02     3.7790E-03     2.4548E-03    -6.8818E-01

################################################################################
DFT+U information on atom      1 of Hubbard species Fe  
################################################################################
Occupancy matrix of Hubbard site      1 and spin      1 is 
  m_l =   -2          -1           0           1           2
  0.99794253 -0.00039047 -0.00087933  0.00128804  0.00050556
 -0.00039046  0.99762285 -0.00054236 -0.00067954  0.00102904
 -0.00087904 -0.00054220  0.99815976 -0.00045538  0.00092614
  0.00128812 -0.00067948 -0.00045558  0.99779661  0.00036209
  0.00050567  0.00102912  0.00092657  0.00036203  0.99769292
################################################################################
Occupancy matrix of Hubbard site      1 and spin      2 is 
  m_l =   -2          -1           0           1           2
  0.31985855 -0.07456229  0.00292466 -0.02277240 -0.02303839
 -0.07457181  0.17651147 -0.05770971  0.01226025  0.01317490
  0.00292798 -0.05768533  0.29214887  0.01427835 -0.00166405
 -0.02278116  0.01226034  0.01428265  0.30461545 -0.00611217
 -0.02303659  0.01318831 -0.00165792 -0.00611533  0.32927637
################################################################################
Total occupancy of Hubbard site      1 is         6.41162537 e
Local magnetic moment of Hubbard site      1 is   3.56680397 mu_B
DFT+U energy of Hubbard site      1 is            0.07291799 Ha
################################################################################


################################################################################
DFT+U information on atom      2 of Hubbard species Fe  
################################################################################
Occupancy matrix of Hubbard site      2 and spin      1 is 
  m_l =   -2          -1           0           1           2
  0.99794454 -0.00039038 -0.00087809  0.00128697  0.00050463
 -0.00039031  0.99762456 -0.00054239 -0.00067875  0.00102685
 -0.00087832 -0.00054264  0.99816264 -0.00045498  0.00092612
  0.00128700 -0.00067876 -0.00045489  0.99779885  0.00036149
  0.00050478  0.00102713  0.00092605  0.00036147  0.99769806
################################################################################
Occupancy matrix of Hubbard site      2 and spin      2 is 
  m_l =   -2          -1           0           1           2
  0.31987660 -0.07458340  0.00291285 -0.02277215 -0.02304699
 -0.07458216  0.17654111 -0.05770347  0.01226908  0.01318127
  0.00291798 -0.05772118  0.29222399  0.01427557 -0.00167510
 -0.02277972  0.01227050  0.01427089  0.30467809 -0.00609919
 -0.02304584  0.01319931 -0.00166707 -0.00610319  0.32930384
################################################################################
Total occupancy of Hubbard site      2 is         6.41185228 e
Local magnetic moment of Hubbard site      2 is   3.56660499 mu_B
DFT+U energy of Hubbard site      2 is            0.07292298 Ha
################################################################################

      ideal mu1:      -0.677173008365
      ideal mu2:      -0.683865753156
             Q0:        -512.267094390490
             G0:      -0.079433440735
   RMS gradient:       0.001987536218

################################################################################
DFT+U information on atom      1 of Hubbard species Fe  
################################################################################
Occupancy matrix of Hubbard site      1 and spin      1 is 
  m_l =   -2          -1           0           1           2
  0.99785075 -0.00032950 -0.00091033  0.00136216  0.00050496
 -0.00032947  0.99772129 -0.00055666 -0.00070190  0.00097431
 -0.00091002 -0.00055648  0.99826045 -0.00036478  0.00098343
  0.00136226 -0.00070184 -0.00036494  0.99780361  0.00038051
  0.00050507  0.00097439  0.00098388  0.00038045  0.99774497
################################################################################
Occupancy matrix of Hubbard site      1 and spin      2 is 
  m_l =   -2          -1           0           1           2
  0.33147726 -0.07984601  0.00009268 -0.01840773 -0.02254604
 -0.07985572  0.18063737 -0.06181734  0.01227353  0.01700727
  0.00009701 -0.06179149  0.30226802  0.01241160 -0.00097603
 -0.01841631  0.01227385  0.01241488  0.31577363 -0.00613255
 -0.02254381  0.01702147 -0.00096909 -0.00613604  0.33992070
################################################################################
Total occupancy of Hubbard site      1 is         6.45945805 e
Local magnetic moment of Hubbard site      1 is   3.51930412 mu_B
DFT+U energy of Hubbard site      1 is            0.07409964 Ha
################################################################################


################################################################################
DFT+U information on atom      2 of Hubbard species Fe  
################################################################################
Occupancy matrix of Hubbard site      2 and spin      1 is 
  m_l =   -2          -1           0           1           2
  0.99785289 -0.00032936 -0.00090892  0.00136108  0.00050390
 -0.00032929  0.99772297 -0.00055661 -0.00070111  0.00097193
 -0.00090915 -0.00055686  0.99826341 -0.00036440  0.00098331
  0.00136112 -0.00070111 -0.00036432  0.99780582  0.00037988
  0.00050406  0.00097220  0.00098323  0.00037986  0.99775050
################################################################################
Occupancy matrix of Hubbard site      2 and spin      2 is 
  m_l =   -2          -1           0           1           2
  0.33150909 -0.07987302  0.00008059 -0.01840640 -0.02255657
 -0.07987122  0.18067904 -0.06181469  0.01228344  0.01701579
  0.00008507 -0.06183399  0.30236078  0.01240633 -0.00098787
 -0.01841397  0.01228512  0.01240180  0.31585750 -0.00611865
 -0.02255488  0.01703549 -0.00097937 -0.00612293  0.33996300
################################################################################
Total occupancy of Hubbard site      2 is         6.45976502 e
Local magnetic moment of Hubbard site      2 is   3.51902619 mu_B
DFT+U energy of Hubbard site      2 is            0.07410633 Ha
################################################################################

     Trial step:       0.301169495966
             Q1:        -512.279619071373
 Quadratic coef:       0.011398248426
 Linear coef   :      -0.023922929309
           Qmin:        -512.279646901309
Quadratic minimum step length (  0.316051041035) accepted
    Initial Ne1:     113.99999960
    Initial Ne2:     103.99999959
      Final Ne1:     114.00000000
      Final Ne2:     104.00000000

=================== Penalty functional idempotency correction ==================
 RMS occupancy error at iteration   1:  0.000344 (step -0.4985 Ne1=    114.0000)
                                                               Ne2=    104.0000
 RMS occupancy error at iteration   2:  0.000001 (step -0.5000 Ne1=    114.0000)
                                                               Ne2=    104.0000
            Final RMS occupancy error   :  0.000000 (Ne1=    114.0000)
                                                     Ne2=    104.0000
            Final occupancy bounds spin 1: [  0.000,  1.000]
            Final occupancy bounds spin 2: [  0.000,  1.000]
================================================================================

    3        -5.122670943905E+02     1.9875E-03     1.2949E-03    -3.3474E-02

################################################################################
DFT+U information on atom      1 of Hubbard species Fe  
################################################################################
Occupancy matrix of Hubbard site      1 and spin      1 is 
  m_l =   -2          -1           0           1           2
  0.99784565 -0.00032648 -0.00091215  0.00136620  0.00050505
 -0.00032644  0.99772576 -0.00055729 -0.00070316  0.00097184
 -0.00091185 -0.00055711  0.99826481 -0.00036051  0.00098647
  0.00136630 -0.00070310 -0.00036067  0.99780341  0.00038158
  0.00050516  0.00097192  0.00098693  0.00038152  0.99774676
################################################################################
Occupancy matrix of Hubbard site      1 and spin      2 is 
  m_l =   -2          -1           0           1           2
  0.33205480 -0.08010735 -0.00004839 -0.01819087 -0.02252107
 -0.08011707  0.18084415 -0.06202138  0.01227439  0.01719726
 -0.00004400 -0.06199546  0.30277234  0.01231870 -0.00094180
 -0.01819944  0.01227472  0.01232192  0.31632928 -0.00613357
 -0.02251883  0.01721150 -0.00093481 -0.00613707  0.34045042
################################################################################
Total occupancy of Hubbard site      1 is         6.46183739 e
Local magnetic moment of Hubbard site      1 is   3.51693541 mu_B
DFT+U energy of Hubbard site      1 is            0.07415621 Ha
################################################################################


################################################################################
DFT+U information on atom      2 of Hubbard species Fe  
################################################################################
Occupancy matrix of Hubbard site      2 and spin      1 is 
  m_l =   -2          -1           0           1           2
  0.99784780 -0.00032633 -0.00091074  0.00136512  0.00050398
 -0.00032626  0.99772744 -0.00055724 -0.00070237  0.00096944
 -0.00091097 -0.00055749  0.99826777 -0.00036014  0.00098635
  0.00136517 -0.00070238 -0.00036006  0.99780562  0.00038095
  0.00050414  0.00096972  0.00098627  0.00038093  0.99775231
################################################################################
Occupancy matrix of Hubbard site      2 and spin      2 is 
  m_l =   -2          -1           0           1           2
  0.33208733 -0.08013465 -0.00006049 -0.01818949 -0.02253170
 -0.08013283  0.18088641 -0.06201890  0.01228436  0.01720589
 -0.00005604 -0.06203829  0.30286598  0.01231330 -0.00095368
[...]
*    H      39      0.00000061  -0.00000457   0.00000208 *
*    C      40      0.00000061  -0.00000457   0.00000208 *
*    H      41      0.00000061  -0.00000457   0.00000208 *
*    H      42      0.00000061  -0.00000457   0.00000208 *
*    H      43      0.00000061  -0.00000457   0.00000208 *
*    Fe     44      0.00000061  -0.00000457   0.00000208 *
*    O      45      0.00000061  -0.00000457   0.00000208 *
*    O      46      0.00000061  -0.00000457   0.00000208 *
*    O      47      0.00000061  -0.00000457   0.00000208 *
*    C      48      0.00000061  -0.00000457   0.00000208 *
*    C      49      0.00000061  -0.00000457   0.00000208 *
*    C      50      0.00000061  -0.00000457   0.00000208 *
*    C      51      0.00000061  -0.00000457   0.00000208 *
*    H      52      0.00000061  -0.00000457   0.00000208 *
*    H      53      0.00000061  -0.00000457   0.00000208 *
*    H      54      0.00000061  -0.00000457   0.00000208 *
*    C      55      0.00000061  -0.00000457   0.00000208 *
*    H      56      0.00000061  -0.00000457   0.00000208 *
*    H      57      0.00000061  -0.00000457   0.00000208 *
*    H      58      0.00000061  -0.00000457   0.00000208 *
*    C      59      0.00000061  -0.00000457   0.00000208 *
*    H      60      0.00000061  -0.00000457   0.00000208 *
*    H      61      0.00000061  -0.00000457   0.00000208 *
*    H      62      0.00000061  -0.00000457   0.00000208 *
*    C      63      0.00000061  -0.00000457   0.00000208 *
*    H      64      0.00000061  -0.00000457   0.00000208 *
*    H      65      0.00000061  -0.00000457   0.00000208 *
*    H      66      0.00000061  -0.00000457   0.00000208 *
*    C      67      0.00000061  -0.00000457   0.00000208 *
*    H      68      0.00000061  -0.00000457   0.00000208 *
*    H      69      0.00000061  -0.00000457   0.00000208 *
*    H      70      0.00000061  -0.00000457   0.00000208 *
*    C      71      0.00000061  -0.00000457   0.00000208 *
*    H      72      0.00000061  -0.00000457   0.00000208 *
*    H      73      0.00000061  -0.00000457   0.00000208 *
*    H      74      0.00000061  -0.00000457   0.00000208 *
*    C      75      0.00000061  -0.00000457   0.00000208 *
*    H      76      0.00000061  -0.00000457   0.00000208 *
*    H      77      0.00000061  -0.00000457   0.00000208 *
*    H      78      0.00000061  -0.00000457   0.00000208 *
*    C      79      0.00000061  -0.00000457   0.00000208 *
*    H      80      0.00000061  -0.00000457   0.00000208 *
*    H      81      0.00000061  -0.00000457   0.00000208 *
*    H      82      0.00000061  -0.00000457   0.00000208 *
*    C      83      0.00000061  -0.00000457   0.00000208 *
*    H      84      0.00000061  -0.00000457   0.00000208 *
*    H      85      0.00000061  -0.00000457   0.00000208 *
*    H      86      0.00000061  -0.00000457   0.00000208 *
*                                                        *
**********************************************************
TOTAL:              0.00005268  -0.00039285   0.00017864

********************* Unconstrained **********************
************************* Forces *************************
*                                                        *
* Element  Atom         Cartesian components (Eh/a)      *
* ------------------------------------------------------ *
*                       x            y            z      *
*                                                        *
*    Fe      1     -0.00040186   0.00094847  -0.00144681 *
*    O       2      0.00241109   0.00073003  -0.00122184 *
*    O       3      0.00915875  -0.00153014  -0.00107614 *
*    O       4     -0.00489874   0.00282750  -0.00576578 *
*    C       5     -0.00140605  -0.00171896  -0.00173003 *
*    C       6     -0.00038138   0.00259424  -0.00207405 *
*    C       7     -0.00213653   0.00037874   0.00216363 *
*    C       8      0.00011935  -0.00103978  -0.00027524 *
*    H       9      0.00406237   0.00029334  -0.00154870 *
*    H      10     -0.00198317  -0.00282212  -0.00273913 *
*    H      11      0.00022889  -0.00189322   0.00347436 *
*    C      12     -0.00101882  -0.00039799  -0.00005407 *
*    H      13     -0.00013143  -0.00164629   0.00392859 *
*    H      14     -0.00252288  -0.00271649  -0.00232593 *
*    H      15     -0.00226072   0.00371211   0.00020833 *
*    C      16     -0.00031003   0.00030680  -0.00122424 *
*    H      17     -0.00179316   0.00356617  -0.00005291 *
*    H      18     -0.00202167  -0.00242077  -0.00299409 *
*    H      19      0.00395930   0.00068316  -0.00168884 *
*    C      20      0.00113188  -0.00005064  -0.00047926 *
*    H      21      0.00297059   0.00071080   0.00313765 *
*    H      22      0.00058633   0.00305078  -0.00291929 *
*    H      23      0.00115658  -0.00368978  -0.00186915 *
*    C      24     -0.00015028   0.00117541   0.00025388 *
*    H      25     -0.00388688   0.00022708   0.00156290 *
*    H      26      0.00023176   0.00346038  -0.00265749 *
*    H      27      0.00270855   0.00089991   0.00327806 *
*    C      28     -0.00074144  -0.00000890  -0.00106307 *
*    H      29      0.00076371  -0.00371202  -0.00198766 *
*    H      30      0.00007509   0.00304098  -0.00316218 *
*    H      31     -0.00402796  -0.00021218   0.00126722 *
*    C      32     -0.00058327  -0.00033060   0.00099193 *
*    H      33     -0.00029132  -0.00426234  -0.00067961 *
*    H      34     -0.00376392   0.00093309   0.00218345 *
*    H      35      0.00304505   0.00059119   0.00287416 *
*    C      36     -0.00070192  -0.00021510  -0.00086198 *
*    H      37      0.00045440   0.00220186  -0.00370287 *
*    H      38     -0.00388171   0.00119123   0.00151847 *
*    H      39     -0.00042150  -0.00422774  -0.00107884 *
*    C      40     -0.00018237   0.00138342   0.00042742 *
*    H      41      0.00315805   0.00099067   0.00268633 *
*    H      42     -0.00364684   0.00155446   0.00183684 *
*    H      43      0.00069443   0.00240914  -0.00345888 *
*    Fe     44      0.00040834  -0.00093673   0.00144614 *
*    O      45     -0.00241295  -0.00076395   0.00119739 *
*    O      46     -0.00915828   0.00152537   0.00105625 *
*    O      47      0.00489593  -0.00282081   0.00574253 *
*    C      48      0.00139029   0.00177748   0.00160330 *
*    C      49      0.00037854  -0.00273752   0.00217040 *
*    C      50      0.00214185  -0.00056236  -0.00216706 *
*    C      51     -0.00016757   0.00109531   0.00030222 *
*    H      52     -0.00405953  -0.00028081   0.00155072 *
*    H      53      0.00198589   0.00283161   0.00272913 *
*    H      54     -0.00022769   0.00188493  -0.00345563 *
*    C      55      0.00097938   0.00056015   0.00027424 *
*    H      56      0.00013102   0.00161495  -0.00393100 *
*    H      57      0.00252692   0.00269060   0.00234128 *
*    H      58      0.00225846  -0.00372138  -0.00020636 *
*    C      59      0.00032529  -0.00024807   0.00112686 *
*    H      60      0.00179745  -0.00355433   0.00006441 *
*    H      61      0.00201982   0.00242505   0.00300512 *
*    H      62     -0.00395614  -0.00067590   0.00167877 *
*    C      63     -0.00113556   0.00004098   0.00047611 *
*    H      64     -0.00296736  -0.00073873  -0.00312250 *
*    H      65     -0.00058566  -0.00305219   0.00293454 *
*    H      66     -0.00115610   0.00369030   0.00188699 *
*    C      67      0.00014940  -0.00127508  -0.00051660 *
*    H      68      0.00389043  -0.00022942  -0.00156995 *
*    H      69     -0.00022756  -0.00345462   0.00267587 *
*    H      70     -0.00270934  -0.00092304  -0.00325900 *
*    C      71      0.00075366   0.00002170   0.00102930 *
*    H      72     -0.00076363   0.00372270   0.00198123 *
*    H      73     -0.00007487  -0.00304541   0.00315305 *
*    H      74      0.00402939   0.00019160  -0.00124993 *
*    C      75      0.00059618   0.00050761  -0.00098436 *
*    H      76      0.00029308   0.00423189   0.00067615 *
*    H      77      0.00376471  -0.00094273  -0.00218827 *
*    H      78     -0.00304379  -0.00059925  -0.00288560 *
*    C      79      0.00070084   0.00027505   0.00088679 *
*    H      80     -0.00045023  -0.00219554   0.00371925 *
*    H      81      0.00388404  -0.00117967  -0.00151884 *
*    H      82      0.00042161   0.00422682   0.00106997 *
*    C      83      0.00019917  -0.00137310  -0.00031464 *
*    H      84     -0.00315030  -0.00100219  -0.00268645 *
*    H      85      0.00364700  -0.00155204  -0.00182755 *
*    H      86     -0.00069247  -0.00241513   0.00345063 *
*                                                        *
**********************************************************
* TOTAL:            0.00000000  -0.00000000   0.00000000 *
**********************************************************
 
 
***********************************************************
********** Summary of Forces (values in Eh/a) *************
*                                                         *
* ---------------------- Minimum ------------------------ *
* Atom:         8, |F|min =    0.00108219                 *
* Components:     Fx|min       Fy|min       Fz|min        *
*               0.00011935  -0.00103978  -0.00027524      *
*                                                         *
* ---------------------- Maximum ------------------------ *
* Atom:         3, |F|max =    0.00934784                 *
* Components:     Fx|max       Fy|max       Fz|max        *
*               0.00915875  -0.00153014  -0.00107614      *
*                                                         *
* ---------------- Root Mean Square Force --------------- *
*                  |F|rms =    0.00405141                 *
* Components:     Fx|rms       Fy|rms       Fz|rms        *
*               0.00260533   0.00212247   0.00226302      *
***********************************************************
 

------------------------------ TIMING INFORMATION ------------------------------
AVERAGE TIME:    9241.127s on      6 proc(s)                                    
TOTAL TIME:      9241.127s on      6 proc(s)                                    
==================== AVERAGE TIMINGS FROM ALL PROCS (CUMULATIVE) =====================
|| TAG                                         #calls     cpu time   %total  Gflops ||
|| hubbard_species_proj                       :     1        0.00s   0.000%  ------ ||
|| hash_table_free                            :    29        0.00s   0.000%  ------ ||
|| onetep.F90 main loop imbalance             :     1        0.00s   0.000%  ------ ||
|| hubbard_ngwf_select                        :     1        0.00s   0.000%  ------ ||
|| hubbard_projector_character                :     1        0.00s   0.000%  ------ ||
|| linalg_invert_sym_matrix                   :     2        0.00s   0.000%  ------ || (2 procs only)
|| hubbard_ngwf_on_grid                       :     1        0.00s   0.000%  ------ ||
|| hubbard_tensorial_correction               :     2        0.00s   0.000%  ------ ||
|| ewald_calculate_forces_realspace           :     1        0.00s   0.000%  ------ ||
|| sparse_spam3toblacs_real_fast_imbal        :     6        0.00s   0.000%  ------ ||
|| sparse_blacstospam3_real_fast_imbal        :    24        0.00s   0.000%  ------ ||
|| onetep.F90 final imbalance                 :     1        0.00s   0.000%  ------ ||
|| linalg_dsyev_lt                            :   153        0.01s   0.000%  ------ || (1 procs only)
|| density_fftbox_interp_mult_imbal           : 10676        0.00s   0.000%  ------ ||
|| sparse_spam3toblacs_real_fast_B2           :    36        0.00s   0.000%  ------ ||
|| sw_bessel_init_cpu                         :     1        0.01s   0.000%  ------ || (1 procs only)
|| sparse_spam3toblacs_real_fast_B1           :    36        0.00s   0.000%  ------ ||
|| sparse_set_to_garbage                      :   427        0.00s   0.000%  ------ ||
|| sparse_spam3toblacs_real_fast              :     6        0.01s   0.000%  ------ ||
|| hubbard_projection_mtx                     :    31        0.01s   0.000%  ------ ||
|| ewald_calculate_energy                     :     1        0.01s   0.000%  ------ ||
|| paw_dij_hartree                            :   170        0.02s   0.000%  ------ ||
|| sparse_init                                :     1        0.02s   0.000%  ------ ||
|| ewald_calculate_forces_recipspace          :     1        0.03s   0.000%  ------ ||
|| ewald_calculate_forces                     :     1        0.03s   0.000%  ------ ||
|| linalg_dgemv                               :   127        0.03s   0.000%  ------ ||
|| paw_tcore_density                          :     1        0.03s   0.000%  ------ ||
|| sparse_blacstospam3_real_fast              :    24        0.04s   0.000%  ------ ||
|| sw_init                                    :   319        0.07s   0.001%  ------ ||
|| hubbard_projector_ham                      :    76        0.09s   0.001%  ------ ||
|| dense_eigensolve                           :     2        0.10s   0.001%  ------ ||
|| palser_mano_kernel_optimise_spam3_embed    :     2        0.12s   0.001%  ------ ||
|| sparse_embed_array_hotelling_invert        :    29        0.12s   0.001%  ------ ||
|| basis_extract_function_from_box            :  2000        0.12s   0.001%  ------ ||
|| hubbard_ham_matrix                         :    77        0.15s   0.002%  ------ ||
|| augmentation_density_forces                :     1        0.17s   0.002%  ------ ||
|| hubbard_calculate_forces                   :     1        0.30s   0.003%  ------ ||
|| hubbard_energy_total                       :   153        0.47s   0.005%  ------ ||
|| paw_tcore_hartree_on_grid                  :     1        0.53s   0.006%  ------ ||
|| pseudo_make_structure_factor               :     1        0.60s   0.007%  ------ ||
|| kernel_purify                              :   240        0.74s   0.008%  ------ ||
|| ngwfs_initialise_from_radial               :     2        0.88s   0.010%  ------ ||
|| lnv_gradient_norm                          :    75        0.96s   0.010%  ------ ||
|| sparse_trace                               :  5903        0.97s   0.011%  ------ ||
|| paw_sphere_density_on_grid                 :     1        1.07s   0.012%  ------ ||
|| kernel_fix                                 :    75        1.08s   0.012%  ------ ||
|| nonsc_forces_ngwfs_calc                    :     1        1.32s   0.014%  ------ ||
|| integrals_grad_spam3                       :     2        1.62s   0.017%  ------ ||
|| paw_dataset_init                           :     4        1.75s   0.019%  ------ ||
|| paw_tcore_hartree_calc_forces              :     1        1.80s   0.019%  ------ ||
|| function_ops_brappd_ketppd_spam3           :    60        2.24s   0.024%  ------ ||
|| ngwf_gradient_coeffs                       :    15        3.81s   0.041%  ------ ||
|| paw_species_calc_proj_prec_mat             :     1        4.19s   0.045%  ------ ||
|| hubbard_projector_update                   :     1        5.00s   0.054%  ------ ||
|| paw_nlcc_calculate_forces                  :     1        5.62s   0.061%  ------ ||
|| sparse_product                             : 10584        6.91s   0.075%  ------ ||
|| energy_and_force_init_cell                 :     1        7.14s   0.077%  ------ ||
|| projectors_func_grad_ovlp_box_spam3        :     3        7.94s   0.086%  ------ ||
|| aug_nl_calculate_forces                    :     1        8.24s   0.089%  ------ ||
|| restart_kernel_write                       :    16       18.22s   0.197%  ------ ||
|| integrals_kinetic_spam3                    :    29       21.82s   0.236%  ------ ||
|| restart_ngwfs_tightbox_output              :    14       22.36s   0.242%  ------ ||
|| basis_copy_function_to_box                 : 18268       23.26s   0.252%  ------ ||
|| augmentation_screen_dij_spam3              :   161       24.83s   0.269%  ------ ||
|| fourier_apply_box_pair                     :  2511       28.24s   0.306%  88.047 ||
|| eigenstates_calculate                      :     1       30.76s   0.333%  ------ ||
|| aug_nonlocal_mat_spam3_embed_array         :   154       33.29s   0.360%  ------ ||
|| basis_dot_function_with_box                : 1.553M      33.56s   0.363%  ------ ||
|| paw_dij_xc                                 :   170       35.75s   0.387%  ------ ||
|| cell_grid_extract_box_real                 : 11894       39.81s   0.431%  ------ ||
|| integrals_locpot_mat_els_batch             :   498       50.94s   0.551%  ------ ||
|| forces_calculate                           :     1       52.25s   0.565%  ------ ||
|| density_init_guess_real                    :     2       63.13s   0.683%  ------ ||
|| fourier_filter_cell                        :   196       63.47s   0.687%  23.466 ||
|| aug_density_on_grid_spam3                  :   157       66.27s   0.717%  ------ ||
|| density_batch_row_sums                     :   942       68.11s   0.737%  ------ ||
|| cell_grid_deposit_box_real                 : 16628       89.34s   0.967%  ------ ||
|| hartree_on_grid_single                     :   156       95.18s   1.030%  ------ ||
|| basis_add_function_to_box                  : 2.898M     102.60s   1.110%  ------ ||
|| fourier_interpolate_cell                   :   314      111.55s   1.207%  21.392 ||
|| projectors_func_ovlp_box_spam3             :    61      125.69s   1.360%  ------ ||
|| projectors_init_fftbox_recip               :   335      130.14s   1.408%  ------ ||
|| hamiltonian_energy_components              :     3      156.79s   1.697%  ------ ||
|| density_fftbox_deposit_to_cell             : 10676      175.61s   1.900%  ------ ||
|| properties_calculate                       :     1      248.20s   2.686%  ------ ||
|| fourier_filter                             :  3822      273.97s   2.965%  ------ ||
|| fourier_apply_cell_forward                 :  1405      360.73s   3.904%  26.636 ||
|| fourier_apply_cell_backward                :  1405      434.03s   4.697%  22.138 ||
|| fourier_interpolate                        :  3822      609.48s   6.595%  ------ ||
|| xc_energy_potential                        :   156      852.24s   9.222%  ------ ||
|| potential_apply_to_ngwf_batch              :   498     1113.85s  12.053%  ------ ||
|| integrals_locpot_dbl_grid                  :   166     1164.97s  12.606%  ------ ||
|| fourier_interpolate_product                : 10466     1338.52s  14.484%  ------ ||
|| density_fftbox_interpolate_multiply        : 10676     1447.90s  15.668%  ------ ||
|| fourier_apply_box                          : 72183     1523.93s  16.491% 128.691 ||
|| projectors_gradient_batch                  :   180     1672.95s  18.103%  ------ ||
|| projectors_grad_precond_batch              :    90     1848.33s  20.001%  ------ ||
|| density_batch_interp_deposit               :   942     1948.73s  21.088%  ------ ||
|| density_on_dbl_grid                        :   314     2071.55s  22.417%  ------ ||
|| hamiltonian_lhxc_calculate                 :   151     3241.45s  35.076%  ------ ||
|| ngwf_gradient_build_batch                  :    90     3852.44s  41.688%  ------ ||
|| ngwf_gradient_batch                        :    90     4036.23s  43.677%  ------ ||
|| lnv_denskernel_optimise_cg                 :    15     4063.41s  43.971%  ------ ||
|| ngwf_gradient_lnv                          :    15     4119.69s  44.580%  ------ ||
|| ngwf_cg_optimise                           :     1     8827.83s  95.528%  ------ ||
|| energy_and_forces                          :     1     9233.52s  99.918%  ------ ||
|| total_time                                 :     1     9241.13s 100.000%  ------ ||
======================================================================================
Overhead of generating timer report: 
- 0 ms averaging over threads,
- 0 ms ensuring consistency across MPI ranks,
- 0 ms printing in order.

Job completed: 27-06-2025 11:48 (+0100)

onetep_launcher: ONETEP seems to have finished correctly (zero exit code).
                 Brought to you by PID 190934 on nid002771.
