==================================================================================
It's Fri 27 Jun 2025 09:16:41 AM BST.
*** Starting onetep_launcher (node nid006836, PIDs 197642 197643 197644 197645 197646 197647)...
    - ONETEP arguments: Fe2_tert-butoxide_6_LowSpin.dat
    - Current directory: /mnt/lustre/a2fs-work3/work/e89/e89/phsmea/onetep_ali/Fe2_OtBu_6/LS/nsp
    - Launcher executable directory: /mnt/lustre/a2fs-work3/work/e89/e89/phsmea/onetep_ali
    - (-e) ONETEP executable specified through command-line: /work/e89/e89/phsmea/onetep.archer2_2024_cray_2
      ... trying /work/e89/e89/phsmea/onetep.archer2_2024_cray_2
          -> looks OK
*** Setting up environment...
    - (-s) Process stack size: unlimited
    - (-t) OMP_NUM_THREADS: 8
    - (-o) OMP_STACKSIZE: 64M
    - (-c) Maximum core file size: 2048000
    - (-d) decfort_dump_flag: n
    - (-m) I_MPI_OFA_TRANSLATION_CACHE: 0
    - (-m) I_MPI_DAPL_TRANSLATION_CACHE: 0
    - (-m) I_MPI_DAPL_UD_TRANSLATION_CACHE: 0
*** Starting ONETEP...
    - /work/e89/e89/phsmea/onetep.archer2_2024_cray_2 Fe2_tert-butoxide_6_LowSpin.dat
=================================================================================
_________________________________________________________________________________
 +---------------------------------------------------------------+
 |                                                               |
 |        ####### #     # ####### ####### ####### ######         |
 |        #     # ##    # #          #    #       #     #        |
 |        #     # # #   # #          #    #       #     #        |
 |        #     # #  #  # #####      #    #####   ######         |
 |        #     # #   # # #          #    #       #              |
 |        #     # #    ## #          #    #       #              |
 |        ####### #     # #######    #    ####### #              |
 |                                                               |
 |        Linear-Scaling Ab Initio Total Energy Program          |
 |                                                               |
 |          Release for academic collaborators of ODG            |
 |                                             Version 7.3.0     |
 | Remote: git@github.com:Miesaz/onetep_mea.git                  |
 | Local branch: master                                          |
 | Commit ID: 4af45e89288c8df5499704252eec3e032ee3d0c8           |
 | Date: Tue Aug 6 11:28:44 2024 +0100                           |
 | Locally modified files:                                       |
 |   src/hubbard_build_mod.F90                                   |
 |   src/services_mod.F90                                        |
 |                                                               |
 +---------------------------------------------------------------+
 |                                                               |
 |  Authors:                                                     |
 |  Jacek Dziedzic, Peter D. Haynes, Nicholas D. M. Hine,        |
 |  Arash A. Mostofi, Mike C. Payne and Chris-Kriton Skylaris    |
 |                                                               |
 |  Contributors:                                                |
 |  J. Aarons, L. Andrinopoulos, P. W. Avraam, R. A. Bell,       |
 |  A. Bhandari, G. A. Bramley, R. J. Charlton, S. J. Clark,     |
 |  R. J. Clements, G. C. Constantinescu, F. Corsetti,           |
 |  N. Corsini, O. Dieguez, S. M. M. Dubois, K. K. B. Duff,      |
 |  J. M. Escartin, M. Escobar Azor, A. Greco,                   |
 |  H. Helal, Q. O. Hill, L. P. Lee, J.-H. Li,                   |
 |  T. Li, E. B. Linscott, G. Moynihan, D. D. O`Regan,           |
 |  O. K. Okan, E. Parkinson, M. J. S. Phipps,                   |
 |  C. J. Pickard, J. C. A. Prentice, M. I. J. Probert,          |
 |  L. E. Ratcliff, M. Robinson, A. Ruiz Serrano,                |
 |  M. dos Santos Dias, J. S. Spencer, E. W. Tait,               |
 |  G. Teobaldi, D. Turban, V. Vitale, K. A. Wilkinson,          |
 |  C. Weber, J. C. Womack, Chengcheng Xiao, N. Yeung,           |
 |  and T. J. Zuehlsdorff.                                       |
 |                                                               |
 |                                   Copyright (c) 2004-2025     |
 |                                                               |
 |  Please cite:                                                 |
 |  "The ONETEP linear-scaling density functional theory program"|
 |   J. Chem. Phys. 152(17) 174111 (2020)                        |
 |                                                               |
 |          in all publications arising from your use of ONETEP. |
 |                                                               |
 +---------------------------------------------------------------+
 |                                                               |
 |   ONETEP is based on developments described in the following  |
 |   publications:                                               |
 |                                                               |
 |  "Nonorthogonal generalized Wannier function pseudopotential  |
 |   plane-wave method".                                         |
 |   C.-K. Skylaris, A. A. Mostofi, P. D. Haynes, O. Dieguez,    |
 |   M. C. Payne.                                                |
 |   Phys. Rev. B 66 035119 (2002).                              |
 |                                                               |
 |  "Preconditioned iterative minimization for linear-scaling    |
 |   electronic structure calculations".                         |
 |   A. A. Mostofi, P. D. Haynes, C.-K. Skylaris, M. C. Payne.   |
 |   J. Chem. Phys. 119(17), pp.8842-8848 (2003).                |
 |                                                               |
 |  "Total-energy calculations on a real space grid with         |
 |   localized functions and a plane-wave basis".                |
 |   A. A. Mostofi, C.-K. Skylaris, P. D. Haynes, M. C. Payne.   |
 |   Comput. Phys. Commun. 147, pp.788-802 (2002).               |
 |                                                               |
 |  "Accurate kinetic energy evaluation in electronic structure  |
 |   calculations with localized functions on real space grids"  |
 |   C.-K. Skylaris, A. A. Mostofi, P. D. Haynes, C. J. Pickard, |
 |   M. C. Payne.                                                |
 |   Comput. Phys. Commun. 140, pp.315-322 (2001).               |
 |                                                               |
 |  "Accurate ionic forces and geometry optimization in linear-  |
 |   scaling density-functional theory with local orbitals"      |
 |   N. D. M. Hine, M. Robinson, P. D. Haynes, C.-K. Skylaris,   |
 |   M. C. Payne, and A. A. Mostofi.                             |
 |   Phys. Rev. B 83 195102 (2011).                              |
 |                                                               |
 +---------------------------------------------------------------+

Job started: 27-06-2025 09:16 (+0100)
 
Reading parameters from file "Fe2_tert-butoxide_6_LowSpin.dat" ...... done

If your calculation crashes here, before "Checking processes and threads..."
is displayed, then your stack size is insufficient.
If so, use "ulimit -s unlimited" at runtime.
You can disable this check with "check_stack_size F".

Checking processes and threads...
   Determining the default number of threads...
      No default threads set at compilation time: defaulting to 1.
      OpenMP library call suggests 8 threads.
      Hybrid MPI-OpenMP compilation detected.
      Number of MPI processes > 1.
      OMP_NUM_THREADS environment variable present and
      its value matches the one obtained from the OpenMP library call.
      Using this value as default.
      Default threads: 8
      Default applies to threads_max and threads_num_fftboxes.
      Settings in the input file override this default.
   ... done

   Running with 6 MPI processes.
   There are 6 MPI processes running on the same node as the root process.
   Each MPI process is using: 
               1 threads for simulation cell FFTs.
               1 threads for threaded FFT box operations.
               8 threads for loops over batched FFT box operations.
               8 threads in other parallel regions.
   MPI Interface: S1 (use mpi_f08) (-DMPI -DUSE_MPI_F08).
   MPI_ASYNC_PROTECTS_NONBLOCKING: Yes. MPI_SUBARRAYS_SUPPORTED: Yes.
   FFTW Interface: OMP-capable and MODERN. (-DUSE_MODERN_FFTW specified).
   GPU Interface: None.
   GPU FFT Backend: None.
... done

Basic input checks...... done

Reading geometry and species blocks from file "Fe2_tert-butoxide_6_LowSpin.dat" ...
  <species_atomic_set> block not found: NGWF initialisation set to SOLVE
    
  Number of PPD points along a3 set to 1.  This is 
  the default value, it may have been provided also in the input file.
... done


--------------------------------------------------------------------------------
---------------------------------- INPUT FILE ----------------------------------
--------------------------------------------------------------------------------

charge : 0                                                                      
cutoff_energy : 800 eV                                                          
do_properties : T                                                               
edft : F                                                                        
fine_grid_scale : 4                                                             
forces_output_detail : VERBOSE                                                  
output_detail : VERBOSE                                                         
paw : T                                                                         
pseudo_path : ../../..                                                          
spin : 2                                                                        
task : SINGLEPOINT                                                              
write_denskern : T                                                              
write_forces : T                                                                
write_tightbox_ngwfs : T                                                        
xc_functional : pbe                                                             
%BLOCK HUBBARD                                                                  
Fe 2 4.0 0 -10 0 0                                                              
%ENDBLOCK HUBBARD                                                               
%BLOCK LATTICE_CART                                                             
ang                                                                             
30.10785296       0.00000000       0.00000000                                   
0.00000000      30.41344770       0.00000000                                    
0.00000000       0.00000000      29.20380479                                    
%ENDBLOCK LATTICE_CART                                                          
%BLOCK POSITIONS_ABS                                                            
ang                                                                             
Fe    14.756415    16.368811    13.756042                                       
O    14.416899    14.493106    13.821861                                        
O    16.048357    17.326792    12.994795                                        
O    13.329816    17.384135    13.504090                                        
C    13.778858    13.613728    12.880240                                        
C    16.036813    18.294921    11.966844                                        
C    12.082109    17.487121    14.164876                                        
C    14.609286    12.343547    12.767658                                        
H    15.611568    12.568489    12.399108                                        
H    14.138705    11.650394    12.066875                                        
H    14.690930    11.848005    13.736789                                        
C    12.378764    13.271604    13.368692                                        
H    12.427581    12.869800    14.381191                                        
H    11.924298    12.528106    12.709572                                        
H    11.736707    14.153196    13.370907                                        
C    13.727354    14.324321    11.536498                                        
H    13.165227    15.258225    11.607925                                        
H    13.237813    13.692008    10.792430                                        
H    14.735703    14.550369    11.181149                                        
C    17.484424    18.397194    11.490706                                        
H    18.136026    18.692197    12.315933                                        
H    17.577932    19.138504    10.693062                                        
H    17.826189    17.431705    11.111603                                        
C    15.578302    19.635749    12.532670                                        
H    14.557336    19.555177    12.907607                                        
H    15.609690    20.413448    11.764954                                        
H    16.231834    19.940376    13.353717                                        
C    15.141918    17.872276    10.806354                                        
H    15.473317    16.911596    10.404387                                        
H    15.182946    18.609004    10.000000                                        
H    14.105796    17.781779    11.136202                                        
C    11.977040    16.535582    15.350930                                        
H    12.120667    15.497899    15.049070                                        
H    10.994160    16.620478    15.820607                                        
H    12.728514    16.775933    16.105740                                        
C    10.991713    17.189869    13.139338                                        
H    11.092049    17.860531    12.283554                                        
H    10.000000    17.330375    13.576256                                        
H    11.063667    16.162275    12.779103                                        
C    11.950361    18.930128    14.646645                                        
H    12.748371    19.170151    15.352010                                        
H    10.989993    19.088278    15.143917                                        
H    12.019961    19.618825    13.802202                                        
Fe    15.351439    14.044562    15.447720                                       
O    15.690973    15.920249    15.381894                                        
O    14.059505    13.086618    16.209021                                        
O    16.778093    13.029334    15.699679                                        
C    16.329332    16.799527    16.323391                                        
C    14.071029    12.118494    17.236968                                        
C    18.025901    12.926706    15.039055                                        
C    15.499300    18.069958    16.435820                                        
H    14.496978    17.845390    16.804477                                        
H    15.970153    18.763066    17.136459                                        
H    15.417739    18.565366    15.466607                                        
C    17.729501    17.141153    15.834781                                        
H    17.680721    17.542744    14.822194                                        
H    18.184235    17.884682    16.493690                                        
H    18.371303    16.259375    15.832732                                        
C    16.380751    16.089099    17.667221                                        
H    16.942592    15.155009    17.595884                                        
H    16.870535    16.721375    18.411160                                        
H    15.372354    15.863415    18.022674                                        
C    12.623393    12.016095    17.713013                                        
H    11.971872    11.721087    16.887722                                        
H    12.529882    11.274739    18.510615                                        
H    12.281530    12.981540    18.092135                                        
C    14.529710    10.777728    16.671126                                        
H    15.550696    10.858420    16.296244                                        
H    14.498346    10.000000    17.438810                                        
H    13.876249    10.473072    15.850030                                        
C    14.965827    12.541164    18.397521                                        
H    14.634288    13.501758    18.799571                                        
H    14.924888    11.804354    19.203805                                        
H    16.001946    12.631843    18.067711                                        
C    18.131074    13.878643    13.853325                                        
H    17.987249    14.916197    14.155507                                        
H    19.114038    13.794043    13.383765                                        
H    17.379762    13.638397    13.098302                                        
C    19.116045    13.223831    16.064906                                        
H    19.015683    12.552847    16.920437                                        
H    20.107853    13.083661    15.628090                                        
H    19.043863    14.251289    16.425507                                        
C    18.157928    11.483887    14.556862                                        
H    17.360099    11.243964    13.851264                                        
H    19.118427    11.326004    14.059768                                        
H    18.088228    10.794957    15.401109                                        
%ENDBLOCK POSITIONS_ABS                                                         
%BLOCK SPECIES                                                                  
C C 6 -1 10.0                                                                   
Fe Fe 26 -1 10.0                                                                
H H 1 -1 10.0                                                                   
O O 8 -1 10.0                                                                   
%ENDBLOCK SPECIES                                                               
%BLOCK SPECIES_POT                                                              
C C.PBE-paw.abinit                                                              
Fe Fe.PBE-paw.abinit                                                            
H H.PBE-paw.abinit                                                              
O O.PBE-paw.abinit                                                              
%ENDBLOCK SPECIES_POT                                                           

--------------------------------------------------------------------------------
-------------------------------- END INPUT FILE --------------------------------
--------------------------------------------------------------------------------


 
 ESDF WARNING(1): "charge" (esdf_physical) has no units. Assume "e".
<<<<<<<<<<<<<<<<<<<<<<<<<<<<<<<<< Full system >>>>>>>>>>>>>>>>>>>>>>>>>>>>>>>>>>
<<<<<<<<<<<<<<<<<<<<<<<<<<< PAW Dataset information >>>>>>>>>>>>>>>>>>>>>>>>>>>
File: Fe.PBE-paw.abinit; rc = 2.12 bohr; shape type =  2; rshape = 1.81 bohr;
  Atomic number: 26;  ionic charge: 16.000000
    Partial Wave 1: l = 0
    Partial Wave 2: l = 0
    Partial Wave 3: l = 1
    Partial Wave 4: l = 1
    Partial Wave 5: l = 2
    Partial Wave 6: l = 2
  Core charge supplied for Nonlinear Core Corrections
File: O.PBE-paw.abinit; rc = 1.41 bohr; shape type =  2; rshape = 1.20 bohr;
  Atomic number:  8;  ionic charge:  6.000000
    Partial Wave 1: l = 0
    Partial Wave 2: l = 0
    Partial Wave 3: l = 1
    Partial Wave 4: l = 1
  Core charge supplied for Nonlinear Core Corrections
File: C.PBE-paw.abinit; rc = 1.51 bohr; shape type =  2; rshape = 1.30 bohr;
  Atomic number:  6;  ionic charge:  4.000000
    Partial Wave 1: l = 0
    Partial Wave 2: l = 0
    Partial Wave 3: l = 1
    Partial Wave 4: l = 1
  Core charge supplied for Nonlinear Core Corrections
File: H.PBE-paw.abinit; rc = 0.90 bohr; shape type =  2; rshape = 0.80 bohr;
  Atomic number:  1;  ionic charge:  1.000000
    Partial Wave 1: l = 0
    Partial Wave 2: l = 0
    Partial Wave 3: l = 1
<<<<<<<<<<<<<<<<<<<<<<<<<<<<<<<<<<<<<<< >>>>>>>>>>>>>>>>>>>>>>>>>>>>>>>>>>>>>>>

-------------------------- Atom counting information ---------------------------
Symbol    Natoms    Nngwfs    Nprojs
  Fe         2        26        36
  O          6        24        48
  C         24        96       192
  H         54        54       270
.......   ......    ......    ......
Totals:     86       200       546
--------------------------------------------------------------------------------

=============================== PSINC grid sizes ===============================
                      Simulation cell:  117 x 117 x 117
                              FFT-box:  117 x 117 x 117
                                  PPD:    9 x   9 x   1
Grid space d1=  0.486287150382a0 (KE cutoff=  32.12317Eh = 874.11597eV)
Grid space d2=  0.491222965483a0 (KE cutoff=  31.48087Eh = 856.63796eV)
Grid space d3=  0.471685411461a0 (KE cutoff=  34.14280Eh = 929.07282eV)
================================================================================

********************* Fourier parallelisation information **********************
       Coarse grid (whole simulation cell) dimensions:    117   117   117
          Real-space ('12') slabs/proc (min max mean):     19    20    19
         Recip-space ('23') slabs/proc (min max mean):      9    10     9
********************************************************************************

********************* Fourier parallelisation information **********************
       Double grid (whole simulation cell) dimensions:    234   234   234
          Real-space ('12') slabs/proc (min max mean):     39    39    39
         Recip-space ('23') slabs/proc (min max mean):     19    20    19
********************************************************************************

********************* Fourier parallelisation information **********************
         Fine grid (whole simulation cell) dimensions:    468   468   468
          Real-space ('12') slabs/proc (min max mean):     78    78    78
         Recip-space ('23') slabs/proc (min max mean):     39    40    39
********************************************************************************

Atom SCF Calculation for C  : Z (AE atom) =   6 : Z (PS atom) =   4
Config String: 2s2.0 2p2.0
Orbitals (num,occ):  2     2.00 2.00
Orbitals   (num,l):  2        0    1
Real-space Grid (nr,dr,rmax): 1503    0.0066577896   10.0000000000
Spherical Bessel Basis (nsws,lmax,cutoff):   37    2  176.3967570603
Confining potential (l,width,scale):  0    3.0000000000  100.0000000000
Confining potential (l,width,scale):  1    3.0000000000  100.0000000000
  1         -5.4381308884   -1.2721298092    4.5135250045   -1.9381135692
  2         -5.3849331102   -1.3649505469    4.4159511708   -1.9005879768
  3         -5.3930021612   -1.3849430624    4.3947033354   -1.8924421815
  4         -5.4001802281   -1.3891927246    4.3902388137   -1.8907518289
  5         -5.4037205329   -1.3915457087    4.3877695258   -1.8898885469
  6         -5.4055416859   -1.3928069742    4.3864477540   -1.8894519912
  7         -5.4065002767   -1.3934742451    4.3857498837   -1.8892319620
  8         -5.4070074727   -1.3938267709    4.3853820092   -1.8891207968
  9         -5.4072763209   -1.3940130896    4.3851880206   -1.8890645345
 10         -5.4074189962   -1.3941116277    4.3850856600   -1.8890360408
 11         -5.4074947717   -1.3941637823    4.3850316039   -1.8890216105
 12         -5.4075350443   -1.3941914082    4.3850030336   -1.8890143059
 13         -5.4075564617   -1.3942060527    4.3849879208   -1.8890106114
 14         -5.4075678586   -1.3942138217    4.3849799198   -1.8890087446
 15         -5.4075739267   -1.3942179465    4.3849756804   -1.8890078024
 16         -5.4075771595   -1.3942201380    4.3849734321   -1.8890073276
 17         -5.4075788827   -1.3942213034    4.3849722389   -1.8890070886
 18         -5.4075798017   -1.3942219235    4.3849716050   -1.8890069685
 19         -5.4075802921   -1.3942222537    4.3849712680   -1.8890069082
 20         -5.4075805539   -1.3942224296    4.3849710888   -1.8890068781
 21         -5.4075806938   -1.3942225235    4.3849709933   -1.8890068630
 22         -5.4075807686   -1.3942225735    4.3849709424   -1.8890068555
Atom SCF converged after  22 iterations to a total energy of     -5.40758077

Atom SCF Calculation for Fe : Z (AE atom) =  26 : Z (PS atom) =  16
Config String: 3s2.0 3p6.0 3d6.0 4s2.0 4p0.0
Orbitals (num,occ):  5     2.00 6.00 6.00 2.00 0.00
Orbitals   (num,l):  5        0    1    2    0    1
Real-space Grid (nr,dr,rmax): 1503    0.0066577896   10.0000000000
Spherical Bessel Basis (nsws,lmax,cutoff):   37    4  176.3967570603
Confining potential (l,width,scale):  0    3.0000000000  100.0000000000
Confining potential (l,width,scale):  1    3.0000000000  100.0000000000
Confining potential (l,width,scale):  2    3.0000000000  100.0000000000
  1       -111.4005172118  -52.5575611559   72.2164000725   -4.0901868950
  2       -116.6635475262  -20.5601904919   91.7007084249   -2.2962490369
  3       -121.6156136875  -23.2753453277   92.4544705195   -2.7706732816
  4       -123.0066153699  -21.4164712440   94.7136519632   -2.9394413820
  5       -123.8168122141  -22.6370400734   94.1384349420   -3.0798102909
  6       -123.9055073486  -21.7222843370   94.9342614757   -3.0846520419
  7       -124.0956886241  -22.4138747628   94.4617720360   -3.1224050559
  8       -124.0492758687  -21.8887017510   94.8692044073   -3.1096545890
  9       -124.1222324005  -22.2877514631   94.5777385101   -3.1254730624
 10       -124.0894611846  -22.0431086758   94.7620026738   -3.1177312036
 11       -124.1066906466  -22.1417456915   94.6895757605   -3.1215019185
 12       -124.1027421480  -22.1090398813   94.7144439268   -3.1205307857
 13       -124.1039552528  -22.1131641559   94.7116547863   -3.1207645739
 14       -124.1041718268  -22.1127261003   94.7121170471   -3.1207931979
 15       -124.1043563153  -22.1126782042   94.7122440208   -3.1208211382
 16       -124.1044853288  -22.1126702816   94.7123114748   -3.1208409484
 17       -124.1045734258  -22.1126674103   94.7123551926   -3.1208545095
 18       -124.1046334193  -22.1126657134   94.7123845864   -3.1208637603
 19       -124.1046742816  -22.1126645462   94.7124045128   -3.1208700757
 20       -124.1047021281  -22.1126636961   94.7124180731   -3.1208743926
 21       -124.1047211147  -22.1126630559   94.7124273290   -3.1208773473
 22       -124.1047340666  -22.1126625637   94.7124336643   -3.1208793718
 23       -124.1047429056  -22.1126621807   94.7124380116   -3.1208807606
 24       -124.1047489402  -22.1126618812   94.7124410017   -3.1208817142
 25       -124.1047530616  -22.1126616468   94.7124430628   -3.1208823696
 26       -124.1047558771  -22.1126614637   94.7124444863   -3.1208828204
 27       -124.1047578011  -22.1126613212   94.7124454714   -3.1208831306
 28       -124.1047591161  -22.1126612109   94.7124461541   -3.1208833444
 29       -124.1047600152  -22.1126611259   94.7124466281   -3.1208834917
 30       -124.1047606300  -22.1126610607   94.7124469575   -3.1208835933
 31       -124.1047610504  -22.1126610110   94.7124471869   -3.1208836634
 32       -124.1047613380  -22.1126609733   94.7124473467   -3.1208837118
 33       -124.1047615347  -22.1126609447   94.7124474583   -3.1208837453
 34       -124.1047616693  -22.1126609232   94.7124475361   -3.1208837684
 35       -124.1047617614  -22.1126609071   94.7124475906   -3.1208837843
Atom SCF converged after  35 iterations to a total energy of   -124.10476176

Atom SCF Calculation for H  : Z (AE atom) =   1 : Z (PS atom) =   1
Config String: 1s1.0
Orbitals (num,occ):  1     1.00
Orbitals   (num,l):  1        0
Real-space Grid (nr,dr,rmax): 1503    0.0066577896   10.0000000000
Spherical Bessel Basis (nsws,lmax,cutoff):   37    2  176.3967570603
Confining potential (l,width,scale):  0    3.0000000000  100.0000000000
  1         -0.3348525927   -0.2401819449    0.2820953128   -0.2388448411
  2         -0.4038948821   -0.2405504229    0.2866889240   -0.2416217444
  3         -0.4360732773   -0.2390089543    0.2890729861   -0.2443653791
  4         -0.4497314704   -0.2383264046    0.2899315599   -0.2456060208
  5         -0.4551901081   -0.2381357631    0.2901452306   -0.2460489407
  6         -0.4573594294   -0.2381000300    0.2901742710   -0.2461947705
  7         -0.4582326910   -0.2381004501    0.2901659451   -0.2462415077
  8         -0.4585900702   -0.2381055523    0.2901559649   -0.2462564278
  9         -0.4587384807   -0.2381092319    0.2901497571   -0.2462612174
 10         -0.4588008132   -0.2381112609    0.2901465144   -0.2462627659
 11         -0.4588272086   -0.2381122698    0.2901449456   -0.2462632682
 12         -0.4588384507   -0.2381127465    0.2901442163   -0.2462634302
 13         -0.4588432580   -0.2381129655    0.2901438848   -0.2462634814
 14         -0.4588453195   -0.2381130645    0.2901437362   -0.2462634968
 15         -0.4588462053   -0.2381131088    0.2901436700   -0.2462635011
 16         -0.4588465865   -0.2381131284    0.2901436407   -0.2462635020
 17         -0.4588467508   -0.2381131372    0.2901436278   -0.2462635020
 18         -0.4588468216   -0.2381131410    0.2901436222   -0.2462635019
Atom SCF converged after  18 iterations to a total energy of     -0.45884682

Atom SCF Calculation for O  : Z (AE atom) =   8 : Z (PS atom) =   6
Config String: 2s2.0 2p4.0
Orbitals (num,occ):  2     2.00 4.00
Orbitals   (num,l):  2        0    1
Real-space Grid (nr,dr,rmax): 1503    0.0066577896   10.0000000000
Spherical Bessel Basis (nsws,lmax,cutoff):   37    2  176.3967570603
Confining potential (l,width,scale):  0    3.0000000000  100.0000000000
Confining potential (l,width,scale):  1    3.0000000000  100.0000000000
  1         -8.3209332552   -7.4828484739   10.1554312602   -2.1270270195
  2        -15.1405599232   -3.0474882742   13.6590820486   -2.5134754209
  3        -15.5174094640   -3.1101891961   13.6243211040   -2.6472956001
  4        -15.7606118231   -3.0805775314   13.6668776248   -2.7100307789
  5        -15.8308896490   -3.0881936416   13.6633910567   -2.7338682066
  6        -15.8678540393   -3.0862312957   13.6673103078   -2.7443897972
  7        -15.8801393942   -3.0873360689   13.6669183555   -2.7485230919
  8        -15.8859601688   -3.0872977830   13.6672813272   -2.7502957173
  9        -15.8880580832   -3.0874730763   13.6672320183   -2.7510066526
 10        -15.8889924584   -3.0874981416   13.6672623218   -2.7513066537
 11        -15.8893459980   -3.0875277929   13.6672548500   -2.7514284384
 12        -15.8894977936   -3.0875355600   13.6672566096   -2.7514793465
 13        -15.8895569380   -3.0875407304   13.6672553199   -2.7515001537
 14        -15.8895817884   -3.0875424467   13.6672552475   -2.7515088021
 15        -15.8895916441   -3.0875433561   13.6672550136   -2.7515123499
 16        -15.8895957327   -3.0875436929   13.6672549605   -2.7515138192
 17        -15.8895973717   -3.0875438525   13.6672549179   -2.7515144231
 18        -15.8895980466   -3.0875439149   13.6672549044   -2.7515146726
 19        -15.8895983189   -3.0875439428   13.6672548968   -2.7515147752
 20        -15.8895984306   -3.0875439540   13.6672548940   -2.7515148175
 21        -15.8895984758   -3.0875439588   13.6672548927   -2.7515148349
Atom SCF converged after  21 iterations to a total energy of    -15.88959848

Atom SCF Calculation for C  : Z (AE atom) =   6 : Z (PS atom) =   4
Config String: 2s2.0 2p2.0
Orbitals (num,occ):  2     2.00 2.00
Orbitals   (num,l):  2        0    1
Real-space Grid (nr,dr,rmax): 1503    0.0066577896   10.0000000000
Spherical Bessel Basis (nsws,lmax,cutoff):   37    2  176.3967570603
Confining potential (l,width,scale):  0    3.0000000000  100.0000000000
Confining potential (l,width,scale):  1    3.0000000000  100.0000000000
  1         -5.4381308884   -1.2721298092    4.5135250045   -1.9381135692
  2         -5.3849331102   -1.3649505469    4.4159511708   -1.9005879768
  3         -5.3930021612   -1.3849430624    4.3947033354   -1.8924421815
  4         -5.4001802281   -1.3891927246    4.3902388137   -1.8907518289
  5         -5.4037205329   -1.3915457087    4.3877695258   -1.8898885469
  6         -5.4055416859   -1.3928069742    4.3864477540   -1.8894519912
  7         -5.4065002767   -1.3934742451    4.3857498837   -1.8892319620
  8         -5.4070074727   -1.3938267709    4.3853820092   -1.8891207968
  9         -5.4072763209   -1.3940130896    4.3851880206   -1.8890645345
 10         -5.4074189962   -1.3941116277    4.3850856600   -1.8890360408
 11         -5.4074947717   -1.3941637823    4.3850316039   -1.8890216105
 12         -5.4075350443   -1.3941914082    4.3850030336   -1.8890143059
 13         -5.4075564617   -1.3942060527    4.3849879208   -1.8890106114
 14         -5.4075678586   -1.3942138217    4.3849799198   -1.8890087446
 15         -5.4075739267   -1.3942179465    4.3849756804   -1.8890078024
 16         -5.4075771595   -1.3942201380    4.3849734321   -1.8890073276
 17         -5.4075788827   -1.3942213034    4.3849722389   -1.8890070886
 18         -5.4075798017   -1.3942219235    4.3849716050   -1.8890069685
 19         -5.4075802921   -1.3942222537    4.3849712680   -1.8890069082
 20         -5.4075805539   -1.3942224296    4.3849710888   -1.8890068781
 21         -5.4075806938   -1.3942225235    4.3849709933   -1.8890068630
 22         -5.4075807686   -1.3942225735    4.3849709424   -1.8890068555
Atom SCF converged after  22 iterations to a total energy of     -5.40758077

Atom SCF Calculation for Fe : Z (AE atom) =  26 : Z (PS atom) =  16
Config String: 3s2.0 3p6.0 3d6.0 4s2.0 4p0.0
Orbitals (num,occ):  5     2.00 6.00 6.00 2.00 0.00
Orbitals   (num,l):  5        0    1    2    0    1
Real-space Grid (nr,dr,rmax): 1503    0.0066577896   10.0000000000
Spherical Bessel Basis (nsws,lmax,cutoff):   37    4  176.3967570603
Confining potential (l,width,scale):  0    3.0000000000  100.0000000000
Confining potential (l,width,scale):  1    3.0000000000  100.0000000000
Confining potential (l,width,scale):  2    3.0000000000  100.0000000000
  1       -111.4005172118  -52.5575611559   72.2164000725   -4.0901868950
  2       -116.6635475262  -20.5601904919   91.7007084249   -2.2962490369
  3       -121.6156136875  -23.2753453277   92.4544705195   -2.7706732816
  4       -123.0066153699  -21.4164712440   94.7136519632   -2.9394413820
  5       -123.8168122141  -22.6370400734   94.1384349420   -3.0798102909
  6       -123.9055073486  -21.7222843370   94.9342614757   -3.0846520419
  7       -124.0956886241  -22.4138747628   94.4617720360   -3.1224050559
  8       -124.0492758687  -21.8887017510   94.8692044073   -3.1096545890
  9       -124.1222324005  -22.2877514631   94.5777385101   -3.1254730624
 10       -124.0894611846  -22.0431086758   94.7620026738   -3.1177312036
 11       -124.1066906466  -22.1417456915   94.6895757605   -3.1215019185
 12       -124.1027421480  -22.1090398813   94.7144439268   -3.1205307857
 13       -124.1039552528  -22.1131641559   94.7116547863   -3.1207645739
 14       -124.1041718268  -22.1127261003   94.7121170471   -3.1207931979
 15       -124.1043563153  -22.1126782042   94.7122440208   -3.1208211382
 16       -124.1044853288  -22.1126702816   94.7123114748   -3.1208409484
 17       -124.1045734258  -22.1126674103   94.7123551926   -3.1208545095
 18       -124.1046334193  -22.1126657134   94.7123845864   -3.1208637603
 19       -124.1046742816  -22.1126645462   94.7124045128   -3.1208700757
 20       -124.1047021281  -22.1126636961   94.7124180731   -3.1208743926
 21       -124.1047211147  -22.1126630559   94.7124273290   -3.1208773473
 22       -124.1047340666  -22.1126625637   94.7124336643   -3.1208793718
 23       -124.1047429056  -22.1126621807   94.7124380116   -3.1208807606
 24       -124.1047489402  -22.1126618812   94.7124410017   -3.1208817142
 25       -124.1047530616  -22.1126616468   94.7124430628   -3.1208823696
 26       -124.1047558771  -22.1126614637   94.7124444863   -3.1208828204
 27       -124.1047578011  -22.1126613212   94.7124454714   -3.1208831306
 28       -124.1047591161  -22.1126612109   94.7124461541   -3.1208833444
 29       -124.1047600152  -22.1126611259   94.7124466281   -3.1208834917
 30       -124.1047606300  -22.1126610607   94.7124469575   -3.1208835933
 31       -124.1047610504  -22.1126610110   94.7124471869   -3.1208836634
 32       -124.1047613380  -22.1126609733   94.7124473467   -3.1208837118
 33       -124.1047615347  -22.1126609447   94.7124474583   -3.1208837453
 34       -124.1047616693  -22.1126609232   94.7124475361   -3.1208837684
 35       -124.1047617614  -22.1126609071   94.7124475906   -3.1208837843
Atom SCF converged after  35 iterations to a total energy of   -124.10476176

Atom SCF Calculation for H  : Z (AE atom) =   1 : Z (PS atom) =   1
Config String: 1s1.0
Orbitals (num,occ):  1     1.00
Orbitals   (num,l):  1        0
Real-space Grid (nr,dr,rmax): 1503    0.0066577896   10.0000000000
Spherical Bessel Basis (nsws,lmax,cutoff):   37    2  176.3967570603
Confining potential (l,width,scale):  0    3.0000000000  100.0000000000
  1         -0.3348525927   -0.2401819449    0.2820953128   -0.2388448411
  2         -0.4038948821   -0.2405504229    0.2866889240   -0.2416217444
  3         -0.4360732773   -0.2390089543    0.2890729861   -0.2443653791
  4         -0.4497314704   -0.2383264046    0.2899315599   -0.2456060208
  5         -0.4551901081   -0.2381357631    0.2901452306   -0.2460489407
  6         -0.4573594294   -0.2381000300    0.2901742710   -0.2461947705
  7         -0.4582326910   -0.2381004501    0.2901659451   -0.2462415077
  8         -0.4585900702   -0.2381055523    0.2901559649   -0.2462564278
  9         -0.4587384807   -0.2381092319    0.2901497571   -0.2462612174
 10         -0.4588008132   -0.2381112609    0.2901465144   -0.2462627659
 11         -0.4588272086   -0.2381122698    0.2901449456   -0.2462632682
 12         -0.4588384507   -0.2381127465    0.2901442163   -0.2462634302
 13         -0.4588432580   -0.2381129655    0.2901438848   -0.2462634814
 14         -0.4588453195   -0.2381130645    0.2901437362   -0.2462634968
 15         -0.4588462053   -0.2381131088    0.2901436700   -0.2462635011
 16         -0.4588465865   -0.2381131284    0.2901436407   -0.2462635020
 17         -0.4588467508   -0.2381131372    0.2901436278   -0.2462635020
 18         -0.4588468216   -0.2381131410    0.2901436222   -0.2462635019
Atom SCF converged after  18 iterations to a total energy of     -0.45884682

Atom SCF Calculation for O  : Z (AE atom) =   8 : Z (PS atom) =   6
Config String: 2s2.0 2p4.0
Orbitals (num,occ):  2     2.00 4.00
Orbitals   (num,l):  2        0    1
Real-space Grid (nr,dr,rmax): 1503    0.0066577896   10.0000000000
Spherical Bessel Basis (nsws,lmax,cutoff):   37    2  176.3967570603
Confining potential (l,width,scale):  0    3.0000000000  100.0000000000
Confining potential (l,width,scale):  1    3.0000000000  100.0000000000
  1         -8.3209332552   -7.4828484739   10.1554312602   -2.1270270195
  2        -15.1405599232   -3.0474882742   13.6590820486   -2.5134754209
  3        -15.5174094640   -3.1101891961   13.6243211040   -2.6472956001
  4        -15.7606118231   -3.0805775314   13.6668776248   -2.7100307789
  5        -15.8308896490   -3.0881936416   13.6633910567   -2.7338682066
  6        -15.8678540393   -3.0862312957   13.6673103078   -2.7443897972
  7        -15.8801393942   -3.0873360689   13.6669183555   -2.7485230919
  8        -15.8859601688   -3.0872977830   13.6672813272   -2.7502957173
  9        -15.8880580832   -3.0874730763   13.6672320183   -2.7510066526
 10        -15.8889924584   -3.0874981416   13.6672623218   -2.7513066537
 11        -15.8893459980   -3.0875277929   13.6672548500   -2.7514284384
 12        -15.8894977936   -3.0875355600   13.6672566096   -2.7514793465
 13        -15.8895569380   -3.0875407304   13.6672553199   -2.7515001537
 14        -15.8895817884   -3.0875424467   13.6672552475   -2.7515088021
 15        -15.8895916441   -3.0875433561   13.6672550136   -2.7515123499
 16        -15.8895957327   -3.0875436929   13.6672549605   -2.7515138192
 17        -15.8895973717   -3.0875438525   13.6672549179   -2.7515144231
 18        -15.8895980466   -3.0875439149   13.6672549044   -2.7515146726
 19        -15.8895983189   -3.0875439428   13.6672548968   -2.7515147752
 20        -15.8895984306   -3.0875439540   13.6672548940   -2.7515148175
 21        -15.8895984758   -3.0875439588   13.6672548927   -2.7515148349
Atom SCF converged after  21 iterations to a total energy of    -15.88959848

BC: Task: SINGLEPOINT
BC: +++++++++++++++ Summary of boundary conditions ++++++++++++++
BC: |       Component       |     Keyword     |   Periodicity   |
BC: |                       |                 |     X  Y  Z [1] |
BC: |-----------------------------------------------------------|
BC: | Ion-ion               | ion_ion_bc [2]  |     P  P  P     |
BC: | Local pseudopotential | pspot_bc [3]    |     P  P  P     |
BC: +++++++++++++++++++++++++++++++++++++++++++++++++++++++++++++
BC: P: Periodic, O: Open.
BC: [1] Not strictly along X, Y, Z but rather along lattice vectors A1, A2, A3.
BC: [2] Also affected by: pbc_correction_cutoff, cutoff_coulomb_type,
BC:     is_smeared_ion_rep, is_implicit_solvent, openbc_ion_ion.
BC: [3] Also affected by: is_smeared_ion_rep, is_implicit_solvent, openbc_pspot.

Determining parallel strategy ...
... using space-filling curve
... NGWF load balancing: max     34;  min     33;  average     33
... Projector load balancing: max     98;  min     82;  average     91
... Hubbard Projector load balancing: max      5;  min      0;  average      2
... done
Calculating Ewald energy ...
              Ewald: real-space energy =         1474.544513
        Ewald: reciprocal-space energy =          482.840940
         Ewald: (sum_charge)**2 energy =           95.262728
         Ewald: (sum_charge**2) energy =           43.349870
                          Ewald energy =         1818.772856
Basis initialisation ...
... NGWF spheres initialised
... Projector spheres initialised
... Hubbard Projector spheres initialised
... NGWF tight boxes initialised
... Projector tight boxes initialised
... Tight-boxes gathered
... NGWF basis size (local,global):        223231      1342752
... PAW projector initialisation
... done

============================= Charge Augmentation ==============================
                           Aug box size:   39 x  39 x  39
================================================================================
... Hubbard projector initialisation

========================== Sparse matrix information ===========================
                        Overlap matrix filling:  99.70%
                        Density kernel filling: 100.00% (known to be dense)
              NGWF-Proj overlap matrix filling:  61.99%
                    Aug Overlap matrix filling:  99.98%
      NGWF-Hubbard Proj overlap matrix filling: 100.00%
                             VW matrix filling: 100.00%
                    Hamiltonian matrix filling: 100.00%
                  NGWF diagonal matrix filling:   2.18%
                             KS matrix filling: 100.00% 
                           KSKS matrix filling: 100.00% 
================================================================================

Sparse matrix initialisation ...
 done
NGWF initialisation ... done
============ Calculation of NGWF S^-1 using Hotelling algorithm ================ 
     Iteration  |  Spin  |  Frobenius norm and Maximum abs value (of I-S*S_n^-1)
         1           1      0.13974662E+02     0.99328681E+00
         2           1      0.13820759E+02     0.98662154E+00
         3           1      0.13546926E+02     0.97343277E+00
         4           1      0.13100463E+02     0.94760934E+00
         5           1      0.12449439E+02     0.89808599E+00
         6           1      0.11590320E+02     0.80690329E+00
         7           1      0.10551975E+02     0.72504232E+00
         8           1      0.94709386E+01     0.67432112E+00
         9           1      0.85283114E+01     0.63406927E+00
        10           1      0.76045340E+01     0.57981434E+00
        11           1      0.63149622E+01     0.49421636E+00
        12           1      0.45242194E+01     0.37582951E+00
        13           1      0.25528367E+01     0.27000878E+00
        14           1      0.10928887E+01     0.17892214E+00
        15           1      0.50373526E+00     0.10539480E+00
        16           1      0.23341366E+00     0.47517592E-01
        17           1      0.54433877E-01     0.10980829E-01
        18           1      0.29630460E-02     0.59761201E-03
        19           1      0.87796416E-05     0.17707517E-05
        20           1      0.77082136E-10     0.15548451E-10
        21           1      0.15867607E-13     0.26645353E-14
================================================================================
 done

################################################################################
DFT+U information on atom      1 of Hubbard species Fe  
################################################################################
Using the on-atom contravariant metric, the NGWF hydrogenic character
| < \phi | \psi > |**2 matrix of Hubbard site      1 is 
  m_l =   -2          -1           0           1           2         SUM
 -0.00000000 -0.00000000  0.00000000  0.00000000  0.00000000  0.00000000
  0.00000000  0.00000000 -0.00000000 -0.00000000 -0.00000000 -0.00000000
 -0.00000000  0.00000000  0.00000000  0.00000000  0.00000000  0.00000000
  0.00000000 -0.00000000 -0.00000000  0.00000000 -0.00000000 -0.00000001
  0.25495000 -0.00000000 -0.00000000  0.00000000 -0.00000000  0.25495000
 -0.00000000  0.25474078  0.00000000 -0.00000000  0.00000000  0.25474078
 -0.00000000  0.00000000  0.25594036 -0.00000000  0.00000000  0.25594036
  0.00000000 -0.00000000 -0.00000000  0.25482867  0.00000000  0.25482867
 -0.00000000  0.00000000  0.00000000  0.00000000  0.25612430  0.25612430
  0.00000000  0.00000000  0.00000000  0.00000000 -0.00000000  0.00000000
 -0.00000000 -0.00000000  0.00000000  0.00000000 -0.00000000 -0.00000000
  0.00000000  0.00000000 -0.00000000  0.00000000  0.00000000 -0.00000000
 -0.00000000  0.00000000  0.00000000  0.00000000 -0.00000000  0.00000000
Total hydrogenic projection of NGWFs on this atom             1.27658410
################################################################################


################################################################################
DFT+U information on atom      2 of Hubbard species Fe  
################################################################################
Using the on-atom contravariant metric, the NGWF hydrogenic character
| < \phi | \psi > |**2 matrix of Hubbard site      2 is 
  m_l =   -2          -1           0           1           2         SUM
 -0.00000000 -0.00000000  0.00000000  0.00000000  0.00000000  0.00000000
  0.00000000  0.00000000 -0.00000000 -0.00000000 -0.00000000 -0.00000000
 -0.00000000  0.00000000  0.00000000  0.00000000  0.00000000  0.00000000
  0.00000000 -0.00000000 -0.00000000  0.00000000 -0.00000000 -0.00000001
  0.25494990 -0.00000000 -0.00000000  0.00000000 -0.00000000  0.25494990
 -0.00000000  0.25474078  0.00000000 -0.00000000  0.00000000  0.25474078
 -0.00000000  0.00000000  0.25594018 -0.00000000  0.00000000  0.25594018
  0.00000000 -0.00000000 -0.00000000  0.25482869  0.00000000  0.25482869
 -0.00000000  0.00000000  0.00000000  0.00000000  0.25612427  0.25612427
  0.00000000  0.00000000  0.00000000  0.00000000 -0.00000000  0.00000000
 -0.00000000 -0.00000000  0.00000000  0.00000000 -0.00000000 -0.00000000
  0.00000000  0.00000000 -0.00000000  0.00000000  0.00000000 -0.00000000
 -0.00000000  0.00000000  0.00000000  0.00000000 -0.00000000  0.00000000
Total hydrogenic projection of NGWFs on this atom             1.27658381
################################################################################


################################################################################
Using the subspace contravariant metric, the NGWF hydrogenic character
| < \phi | \psi > |**2 matrix of Hubbard site      1 is 
  m_l =   -2          -1           0           1           2         SUM
  0.25494974 -0.00000000 -0.00000000  0.00000000 -0.00000000  0.25494974
 -0.00000000  0.25474070  0.00000000 -0.00000000  0.00000000  0.25474070
 -0.00000000  0.00000000  0.25594023 -0.00000000  0.00000000  0.25594024
  0.00000000 -0.00000000 -0.00000000  0.25482854  0.00000000  0.25482854
 -0.00000000  0.00000000  0.00000000  0.00000000  0.25612410  0.25612410
Total hydrogenic projection of NGWFs on this correlated site  1.27658331
################################################################################


################################################################################
Using the subspace contravariant metric, the NGWF hydrogenic character
| < \phi | \psi > |**2 matrix of Hubbard site      2 is 
  m_l =   -2          -1           0           1           2         SUM
  0.25494964 -0.00000000 -0.00000000  0.00000000 -0.00000000  0.25494964
 -0.00000000  0.25474070  0.00000000 -0.00000000  0.00000000  0.25474070
 -0.00000000  0.00000000  0.25594006 -0.00000000  0.00000000  0.25594006
  0.00000000 -0.00000000 -0.00000000  0.25482855  0.00000000  0.25482855
 -0.00000000  0.00000000  0.00000000  0.00000000  0.25612407  0.25612407
Total hydrogenic projection of NGWFs on this correlated site  1.27658302
################################################################################

Calculating core density ...
================================= Core Density =================================
               Core den box size:   39 x  39 x  39
================================================================================
 ... done
Density kernel initialisation
 
======= Optimisation of K by Palser-Manolopoulos canonical purification ======== 
         Iteration  |  Band structure energy |    c_n   
               1         -48.31144600226899    0.5410555
               2         -51.00208651380451    0.5365841
               3         -54.29323616679417    0.5300797
               4         -58.21491264207782    0.5222424
               5         -62.94013995827653    0.5123912
               6         -68.37194235264344    0.5023854
               7         -73.64862597335426    0.5039045
               8         -77.39751229371615    0.5346720
               9         -78.98996001334785    0.6200720
              10         -79.35243601398494    0.6908190
              11         -79.42887858679703    0.6691777
              12         -79.47112525877482    0.6313962
              13         -79.50315468283520    0.6059338
              14         -79.52578643233690    0.6039910
              15         -79.54012114346898    0.6204332
              16         -79.54744268110045    0.6069936
              17         -79.55146970838803    0.5499485
              18         -79.55452931259379    0.4675610
              19         -79.55624659970077    0.3823817
              20         -79.55669281887948    0.3571329
              21         -79.55686360354724    0.3683814
              22         -79.55705114070558    0.3903737
              23         -79.55727809954141    0.4212808
              24         -79.55751836096508    0.4573970
              25         -79.55770946331012    0.4868521
              26         -79.55779347831452    0.4987136
              27         -79.55780514203718    0.4999880
              28         -79.55780533352534    0.5000018
              29         -79.55780533357668    0.5000018
Termination criterion satisfied: band energy change below threshold.
Final occupancy bounds: [   -0.00000000000000:    1.00000000000000]
Closest occupancy to 0.5:     1.00000000000000
================================================================================
 
======= Optimisation of K by Palser-Manolopoulos canonical purification ======== 
         Iteration  |  Band structure energy |    c_n   
               1         -47.83971697905670    0.5311696
               2         -50.66093192347108    0.5266864
               3         -54.11083937746203    0.5202981
               4         -58.20581759488438    0.5132157
               5         -63.12314160099351    0.5053078
               6         -68.67968822543951    0.5009151
               7         -73.83032921585750    0.5186014
               8         -77.17222238965225    0.5845141
               9         -78.41923903107406    0.6766571
              10         -78.71606453006825    0.6720000
              11         -78.84635515689665    0.6000709
              12         -78.95092649067540    0.5172906
              13         -79.01435659999981    0.4694803
              14         -79.03066280320439    0.4788521
              15         -79.04063864942174    0.4815198
              16         -79.04827547685403    0.4889839
              17         -79.05280627879679    0.5100092
              18         -79.05465699563264    0.5090386
              19         -79.05552060631678    0.5007187
              20         -79.05603860485670    0.5000031
              21         -79.05618784327703    0.5000000
              22         -79.05619699254882    0.5000000
              23         -79.05619702376899    0.5002541
              24         -79.05619702376933    0.5002541
Termination criterion satisfied: band energy change below threshold.
Final occupancy bounds: [    0.00000000000000:    1.00000000000000]
Closest occupancy to 0.5:     1.00000000000000
================================================================================

Writing density kernel to file "Fe2_tert-butoxide_6_LowSpin.dkn" ... done

>>> Optimising kernel for current NGWFs:
   Initial electron number for spin 1:     110.00000000
   Initial electron number for spin 2:     108.00000000
     Final electron number for spin 1:     110.00000000
     Final electron number for spin 2:     108.00000000

=================== Penalty functional idempotency correction ==================
 RMS occupancy error at iteration   1:  0.000000 (step -0.5000 Ne1=    110.0000)
                                                               Ne2=    108.0000
            Final RMS occupancy error   :  0.000000 (Ne1=    110.0000)
                                                     Ne2=    108.0000
            Final occupancy bounds spin 1: [  0.000,  1.000]
            Final occupancy bounds spin 2: [ -0.000,  1.000]
================================================================================

................................................................................
<<<<<<<<<<<<<< LNV (Original version) density kernel optimisation >>>>>>>>>>>>>>
~~~~~~~~~~~~~~~~~~~~~~~~~~~~~~~~~~~~~~~~~~~~~~~~~~~~~~~~~~~~~~~~~~~~~~~~~~~~~~~~
   iter  |      energy (Eh)       | rms gradient |  commutator  |   dE (Eh)

################################################################################
DFT+U information on atom      1 of Hubbard species Fe  
################################################################################
Occupancy matrix of Hubbard site      1 and spin      1 is 
  m_l =   -2          -1           0           1           2
  0.46751978  0.14567882 -0.14407887  0.12544267  0.10614834
  0.14563077  0.90979588  0.10262064  0.00414489  0.04012150
 -0.14412657  0.10267250  0.65379348 -0.22606791 -0.16093071
  0.12546348  0.00413484 -0.22601850  0.71854983 -0.16264856
  0.10610651  0.04012084 -0.16084908 -0.16258380  0.81406856
################################################################################
Occupancy matrix of Hubbard site      1 and spin      2 is 
  m_l =   -2          -1           0           1           2
  0.46505918  0.14088002 -0.12568946  0.12953919  0.09507353
  0.14082658  0.84158557  0.13984028 -0.07800485  0.16300409
 -0.12573037  0.13991045  0.51627772 -0.25461047 -0.08147300
  0.12955244 -0.07803193 -0.25456286  0.57364000  0.07713087
  0.09504947  0.16299624 -0.08144181  0.07711526  0.40957711
################################################################################
Total occupancy of Hubbard site      1 is         6.36986711 e
Local magnetic moment of Hubbard site      1 is   0.75758792 mu_B
DFT+U energy of Hubbard site      1 is            0.09392316 Ha
################################################################################


################################################################################
DFT+U information on atom      2 of Hubbard species Fe  
################################################################################
Occupancy matrix of Hubbard site      2 and spin      1 is 
  m_l =   -2          -1           0           1           2
  0.46756417  0.14562289 -0.14406250  0.12535372  0.10632654
  0.14557496  0.90989568  0.10253384  0.00420219  0.03995363
 -0.14411026  0.10258551  0.65382767 -0.22618360 -0.16070476
  0.12537462  0.00419207 -0.22613435  0.71848264 -0.16265857
  0.10628470  0.03995288 -0.16062331 -0.16259374  0.81425947
################################################################################
Occupancy matrix of Hubbard site      2 and spin      2 is 
  m_l =   -2          -1           0           1           2
  0.46510935  0.14089360 -0.12569431  0.12954683  0.09510212
  0.14084024  0.84155082  0.13987494 -0.07802518  0.16301215
 -0.12573526  0.13994494  0.51627310 -0.25458237 -0.08147413
  0.12956017 -0.07805235 -0.25453495  0.57361444  0.07714041
  0.09507808  0.16300415 -0.08144296  0.07712481  0.40959820
################################################################################
Total occupancy of Hubbard site      2 is         6.37017554 e
Local magnetic moment of Hubbard site      2 is   0.75788371 mu_B
DFT+U energy of Hubbard site      2 is            0.09391807 Ha
################################################################################

      ideal mu1:      -0.628597738005
      ideal mu2:      -0.628033360952
             Q0:        -511.518886305366
             G0:      -3.990483119034
   RMS gradient:       0.014125301977

################################################################################
DFT+U information on atom      1 of Hubbard species Fe  
################################################################################
Occupancy matrix of Hubbard site      1 and spin      1 is 
  m_l =   -2          -1           0           1           2
  0.58448079  0.12186575 -0.11933161  0.09189581  0.07709436
  0.12182496  0.93125543  0.08884704  0.00568085  0.03084006
 -0.11937337  0.08889226  0.70591340 -0.19699234 -0.13792922
  0.09190953  0.00567316 -0.19695052  0.76772545 -0.13762296
  0.07706233  0.03083935 -0.13785964 -0.13756923  0.86136403
################################################################################
Occupancy matrix of Hubbard site      1 and spin      2 is 
  m_l =   -2          -1           0           1           2
  0.58208959  0.11898712 -0.10339205  0.10154686  0.07342486
  0.11894135  0.86854151  0.11931668 -0.06812540  0.14781138
 -0.10342881  0.11937722  0.57794919 -0.23084114 -0.06820967
  0.10155422 -0.06814848 -0.23080062  0.63945414  0.08147539
  0.07340774  0.14780481 -0.06818525  0.08145636  0.50212896
################################################################################
Total occupancy of Hubbard site      1 is         7.02090251 e
Local magnetic moment of Hubbard site      1 is   0.68057571 mu_B
DFT+U energy of Hubbard site      1 is            0.09879871 Ha
################################################################################


################################################################################
DFT+U information on atom      2 of Hubbard species Fe  
################################################################################
Occupancy matrix of Hubbard site      2 and spin      1 is 
  m_l =   -2          -1           0           1           2
  0.58445714  0.12183185 -0.11933760  0.09181479  0.07725237
  0.12179115  0.93131719  0.08877984  0.00571725  0.03071866
 -0.11937943  0.08882489  0.70589328 -0.19712900 -0.13775941
  0.09182858  0.00570950 -0.19708730  0.76761652 -0.13762710
  0.07722032  0.03071789 -0.13768997 -0.13757332  0.86148234
################################################################################
Occupancy matrix of Hubbard site      2 and spin      2 is 
  m_l =   -2          -1           0           1           2
  0.58206966  0.11900506 -0.10339178  0.10155021  0.07344752
  0.11895934  0.86848069  0.11936490 -0.06816632  0.14783465
 -0.10342856  0.11942530  0.57788724 -0.23082994 -0.06820842
  0.10155764 -0.06818948 -0.23078958  0.63937048  0.08150137
  0.07343041  0.14782795 -0.06818402  0.08148234  0.50206169
################################################################################
Total occupancy of Hubbard site      2 is         7.02063624 e
Local magnetic moment of Hubbard site      2 is   0.68089671 mu_B
DFT+U energy of Hubbard site      2 is            0.09879630 Ha
################################################################################

     Trial step:       0.500000000000
             Q1:        -511.860837201628
 Quadratic coef:       1.653290663254
 Linear coef   :      -1.995241559517
           Qmin:        -512.120865886044
Quadratic minimum step length (  0.301707619214) accepted
    Initial Ne1:     110.00000000
    Initial Ne2:     108.00000000
      Final Ne1:     110.00000000
      Final Ne2:     108.00000000

=================== Penalty functional idempotency correction ==================
 RMS occupancy error at iteration   1:  0.002782 (step -0.4893 Ne1=    110.0000)
                                                               Ne2=    108.0000
 RMS occupancy error at iteration   2:  0.000029 (step -0.5001 Ne1=    110.0000)
                                                               Ne2=    108.0000
            Final RMS occupancy error   :  0.000000 (Ne1=    110.0000)
                                                     Ne2=    108.0000
            Final occupancy bounds spin 1: [  0.000,  1.000]
            Final occupancy bounds spin 2: [  0.000,  1.000]
================================================================================

    1        -5.115188863054E+02     1.4125E-02     9.1655E-03

################################################################################
DFT+U information on atom      1 of Hubbard species Fe  
################################################################################
Occupancy matrix of Hubbard site      1 and spin      1 is 
  m_l =   -2          -1           0           1           2
  0.53910728  0.13164715 -0.12932811  0.10453658  0.08849094
  0.13160330  0.92330339  0.09476265  0.00513780  0.03436760
 -0.12937233  0.09481073  0.68513630 -0.20883641 -0.14750979
  0.10455300  0.00512914 -0.20879150  0.74856309 -0.14808239
  0.08845497  0.03436691 -0.14743522 -0.14802407  0.84369060
################################################################################
Occupancy matrix of Hubbard site      1 and spin      2 is 
  m_l =   -2          -1           0           1           2
  0.53674932  0.12798593 -0.11234367  0.11229228  0.08215466
  0.12793694  0.85819805  0.12776327 -0.07221541  0.15426718
 -0.11238216  0.12782779  0.55327599 -0.24076198 -0.07357567
  0.11230187 -0.07224016 -0.24071859  0.61348884  0.08028067
  0.08213474  0.15426009 -0.07354857  0.08026289  0.46523204
################################################################################
Total occupancy of Hubbard site      1 is         6.76674490 e
Local magnetic moment of Hubbard site      1 is   0.71285642 mu_B
DFT+U energy of Hubbard site      1 is            0.09782203 Ha
################################################################################


################################################################################
DFT+U information on atom      2 of Hubbard species Fe  
################################################################################
Occupancy matrix of Hubbard site      2 and spin      1 is 
  m_l =   -2          -1           0           1           2
  0.53910799  0.13160443 -0.12932600  0.10445172  0.08865764
  0.13156068  0.92337868  0.09468745  0.00518213  0.03422883
 -0.12937029  0.09473535  0.68513607 -0.20896596 -0.14731762
  0.10446822  0.00517341 -0.20892119  0.74846879 -0.14808744
  0.08862166  0.03422806 -0.14724321 -0.14802906  0.84383480
################################################################################
Occupancy matrix of Hubbard site      2 and spin      2 is 
  m_l =   -2          -1           0           1           2
  0.53675485  0.12800157 -0.11234475  0.11229678  0.08217945
  0.12795265  0.85814600  0.12780622 -0.07224906  0.15428399
 -0.11238326  0.12787059  0.55323582 -0.24074338 -0.07357430
  0.11230645 -0.07227389 -0.24070017  0.61342589  0.08030042
  0.08215954  0.15427677 -0.07354722  0.08028265  0.46519772
################################################################################
Total occupancy of Hubbard site      2 is         6.76668659 e
Local magnetic moment of Hubbard site      2 is   0.71316605 mu_B
DFT+U energy of Hubbard site      2 is            0.09781739 Ha
################################################################################

      ideal mu1:      -0.658980997321
      ideal mu2:      -0.661471635518
             Q0:        -512.132086288768
             G0:      -0.221703136177
   RMS gradient:       0.003317697499

################################################################################
DFT+U information on atom      1 of Hubbard species Fe  
################################################################################
Occupancy matrix of Hubbard site      1 and spin      1 is 
  m_l =   -2          -1           0           1           2
  0.55175347  0.13015379 -0.12606041  0.10082770  0.08497505
  0.13011028  0.92490346  0.09244179  0.00639157  0.03087607
 -0.12610451  0.09248893  0.68671539 -0.20872956 -0.14584307
  0.10084308  0.00638331 -0.20868542  0.75236772 -0.14767183
  0.08493994  0.03087525 -0.14576935 -0.14761405  0.85094351
################################################################################
Occupancy matrix of Hubbard site      1 and spin      2 is 
  m_l =   -2          -1           0           1           2
  0.54868257  0.12813257 -0.11048403  0.11325739  0.08303782
  0.12808320  0.85683931  0.12494807 -0.07311512  0.15708995
 -0.11052282  0.12501141  0.55098131 -0.24476114 -0.07354100
  0.11326589 -0.07314020 -0.24471813  0.61575085  0.08667197
  0.08301831  0.15708309 -0.07351464  0.08665230  0.47040479
################################################################################
Total occupancy of Hubbard site      1 is         6.80934239 e
Local magnetic moment of Hubbard site      1 is   0.72402472 mu_B
DFT+U energy of Hubbard site      1 is            0.09717463 Ha
################################################################################


################################################################################
DFT+U information on atom      2 of Hubbard species Fe  
################################################################################
Occupancy matrix of Hubbard site      2 and spin      1 is 
  m_l =   -2          -1           0           1           2
  0.55176220  0.13010767 -0.12605424  0.10073595  0.08513704
  0.13006425  0.92498139  0.09236237  0.00643247  0.03073939
 -0.12609841  0.09240933  0.68672377 -0.20885534 -0.14565212
  0.10075140  0.00642414 -0.20881134  0.75227840 -0.14766918
  0.08510193  0.03073849 -0.14557856 -0.14761133  0.85108491
################################################################################
Occupancy matrix of Hubbard site      2 and spin      2 is 
  m_l =   -2          -1           0           1           2
  0.54869913  0.12814817 -0.11048270  0.11325965  0.08306003
  0.12809886  0.85678820  0.12499102 -0.07314818  0.15710673
 -0.11052151  0.12505420  0.55094804 -0.24473770 -0.07354458
  0.11326823 -0.07317335 -0.24469487  0.61569967  0.08669306
  0.08304053  0.15709974 -0.07351824  0.08667340  0.47037891
################################################################################
Total occupancy of Hubbard site      2 is         6.80934462 e
Local magnetic moment of Hubbard site      2 is   0.72431672 mu_B
DFT+U energy of Hubbard site      2 is            0.09717044 Ha
################################################################################

     Trial step:       0.388399033993
             Q1:        -512.155767324801
 Quadratic coef:       0.062428247891
 Linear coef   :      -0.086109283924
           Qmin:        -512.161779612818
Quadratic minimum step length (  0.267865620323) accepted
    Initial Ne1:     109.99999855
    Initial Ne2:     107.99999865
      Final Ne1:     110.00000000
      Final Ne2:     108.00000000

=================== Penalty functional idempotency correction ==================
 RMS occupancy error at iteration   1:  0.000395 (step -0.4985 Ne1=    110.0000)
                                                               Ne2=    108.0000
 RMS occupancy error at iteration   2:  0.000001 (step -0.5000 Ne1=    110.0000)
                                                               Ne2=    108.0000
            Final RMS occupancy error   :  0.000000 (Ne1=    110.0000)
                                                     Ne2=    108.0000
            Final occupancy bounds spin 1: [  0.000,  1.000]
            Final occupancy bounds spin 2: [  0.000,  1.000]
================================================================================

    2        -5.121320862888E+02     3.3177E-03     2.1524E-03    -6.1320E-01

################################################################################
DFT+U information on atom      1 of Hubbard species Fe  
################################################################################
Occupancy matrix of Hubbard site      1 and spin      1 is 
  m_l =   -2          -1           0           1           2
  0.54778804  0.13065361 -0.12709966  0.10197045  0.08605694
  0.13060998  0.92440532  0.09319323  0.00602060  0.03194355
 -0.12714380  0.09324067  0.68618456 -0.20879009 -0.14638857
  0.10198615  0.00601222 -0.20874571  0.75118620 -0.14783960
  0.08602157  0.03194276 -0.14631457 -0.14778164  0.84872554
################################################################################
Occupancy matrix of Hubbard site      1 and spin      2 is 
  m_l =   -2          -1           0           1           2
  0.54496503  0.12812856 -0.11109348  0.11298129  0.08278610
  0.12807929  0.85726203  0.12583006 -0.07283122  0.15624472
 -0.11113218  0.12589376  0.55168196 -0.24355924 -0.07356018
  0.11299013 -0.07285620 -0.24351610  0.61505371  0.08472789
  0.08276646  0.15623779 -0.07353359  0.08470880  0.46875463
################################################################################
Total occupancy of Hubbard site      1 is         6.79600700 e
Local magnetic moment of Hubbard site      1 is   0.72057229 mu_B
DFT+U energy of Hubbard site      1 is            0.09736936 Ha
################################################################################


################################################################################
DFT+U information on atom      2 of Hubbard species Fe  
################################################################################
Occupancy matrix of Hubbard site      2 and spin      1 is 
  m_l =   -2          -1           0           1           2
  0.54779421  0.13060853 -0.12709476  0.10188080  0.08622046
  0.13056500  0.92448244  0.09311507  0.00606256  0.03180616
 -0.12713897  0.09316234  0.68619026 -0.20891707 -0.14619717
  0.10189658  0.00605411 -0.20887283  0.75109530 -0.14783930
  0.08618507  0.03180530 -0.14612333 -0.14778127  0.84886782
################################################################################
Occupancy matrix of Hubbard site      2 and spin      2 is 
  m_l =   -2          -1           0           1           2
  0.54497814  0.12814418 -0.11109288  0.11298428  0.08280916
  0.12809498  0.85721062  0.12587297 -0.07286447  0.15626148
 -0.11113161  0.12593652  0.55164657 -0.24353728 -0.07356223
  0.11299320 -0.07288954 -0.24349433  0.61499889  0.08474858
  0.08278953  0.15625442 -0.07353565  0.08472949  0.46872616
################################################################################
Total occupancy of Hubbard site      2 is         6.79599043 e
Local magnetic moment of Hubbard site      2 is   0.72086964 mu_B
DFT+U energy of Hubbard site      2 is            0.09736505 Ha
################################################################################

      ideal mu1:      -0.666497284168
      ideal mu2:      -0.668992209283
             Q0:        -512.161957942893
             G0:      -0.081141074815
   RMS gradient:       0.002012229059

################################################################################
DFT+U information on atom      1 of Hubbard species Fe  
################################################################################
Occupancy matrix of Hubbard site      1 and spin      1 is 
  m_l =   -2          -1           0           1           2
  0.55808057  0.13006581 -0.12364879  0.09955312  0.08323896
  0.13002210  0.92538184  0.09082589  0.00678407  0.02827942
 -0.12369279  0.09087237  0.68737221 -0.20904144 -0.14474447
  0.09956792  0.00677580 -0.20899777  0.75389813 -0.14769143
  0.08320426  0.02827844 -0.14467132 -0.14763390  0.85535432
################################################################################
Occupancy matrix of Hubbard site      1 and spin      2 is 
  m_l =   -2          -1           0           1           2
  0.55439687  0.12927865 -0.10896827  0.11545019  0.08424192
  0.12922847  0.85468856  0.12334340 -0.07480659  0.15944164
 -0.10900719  0.12340604  0.54806377 -0.24793035 -0.07340876
  0.11545800 -0.07483235 -0.24788759  0.61541422  0.09178457
  0.08422265  0.15943489 -0.07338305  0.09176339  0.47227572
################################################################################
Total occupancy of Hubbard site      1 is         6.82492620 e
Local magnetic moment of Hubbard site      1 is   0.73524794 mu_B
DFT+U energy of Hubbard site      1 is            0.09661221 Ha
################################################################################


################################################################################
DFT+U information on atom      2 of Hubbard species Fe  
################################################################################
Occupancy matrix of Hubbard site      2 and spin      1 is 
  m_l =   -2          -1           0           1           2
  0.55808580  0.13001965 -0.12364215  0.09945771  0.08339959
  0.12997603  0.92545911  0.09074463  0.00682206  0.02814552
 -0.12368622  0.09079094  0.68738061 -0.20916847 -0.14455725
  0.09947258  0.00681371 -0.20912494  0.75380750 -0.14768524
  0.08336487  0.02814447 -0.14448426 -0.14762764  0.85548898
################################################################################
Occupancy matrix of Hubbard site      2 and spin      2 is 
  m_l =   -2          -1           0           1           2
  0.55441175  0.12929599 -0.10896613  0.11545204  0.08426374
  0.12924586  0.85463476  0.12338821 -0.07484163  0.15946013
 -0.10900509  0.12345070  0.54802810 -0.24790568 -0.07341598
  0.11545993 -0.07486747 -0.24786309  0.61536433  0.09180812
  0.08424449  0.15945325 -0.07339029  0.09178695  0.47224582
################################################################################
Total occupancy of Hubbard site      2 is         6.82490674 e
Local magnetic moment of Hubbard site      2 is   0.73553723 mu_B
DFT+U energy of Hubbard site      2 is            0.09660813 Ha
################################################################################

     Trial step:       0.322550380830
             Q1:        -512.176251718122
 Quadratic coef:       0.011878309353
 Linear coef   :      -0.026172084583
           Qmin:        -512.176374514962
Quadratic minimum step length (  0.355345849232) accepted
    Initial Ne1:     109.99999929
    Initial Ne2:     107.99999934
      Final Ne1:     110.00000000
      Final Ne2:     108.00000000

=================== Penalty functional idempotency correction ==================
 RMS occupancy error at iteration   1:  0.000422 (step -0.4981 Ne1=    110.0000)
                                                               Ne2=    108.0000
 RMS occupancy error at iteration   2:  0.000001 (step -0.5000 Ne1=    110.0000)
                                                               Ne2=    108.0000
            Final RMS occupancy error   :  0.000000 (Ne1=    110.0000)
                                                     Ne2=    108.0000
            Final occupancy bounds spin 1: [  0.000,  1.000]
            Final occupancy bounds spin 2: [  0.000,  1.000]
================================================================================

    3        -5.121619579429E+02     2.0122E-03     1.3052E-03    -2.9872E-02

################################################################################
DFT+U information on atom      1 of Hubbard species Fe  
################################################################################
Occupancy matrix of Hubbard site      1 and spin      1 is 
  m_l =   -2          -1           0           1           2
  0.55913590  0.12999546 -0.12329199  0.09930899  0.08295494
  0.12995174  0.92547689  0.09057440  0.00685441  0.02791634
 -0.12333597  0.09062079  0.68750427 -0.20905885 -0.14456704
  0.09932370  0.00684615 -0.20901526  0.75417093 -0.14765883
  0.08292030  0.02791534 -0.14449398 -0.14760135  0.85601041
################################################################################
Occupancy matrix of Hubbard site      1 and spin      2 is 
  m_l =   -2          -1           0           1           2
  0.55535022  0.12938270 -0.10874074  0.11569013  0.08437924
  0.12933242  0.85441904  0.12309165 -0.07501145  0.15975429
 -0.10877969  0.12315418  0.54769441 -0.24835605 -0.07339088
  0.11569784 -0.07503729 -0.24831332  0.61544736  0.09248326
  0.08436001  0.15974756 -0.07336526  0.09246187  0.47264719
################################################################################
Total occupancy of Hubbard site      1 is         6.82785662 e
Local magnetic moment of Hubbard site      1 is   0.73674020 mu_B
DFT+U energy of Hubbard site      1 is            0.09653824 Ha
################################################################################


################################################################################
DFT+U information on atom      2 of Hubbard species Fe  
[...]
*    H      39     -0.00000017   0.00000097  -0.00000078 *
*    C      40     -0.00000017   0.00000097  -0.00000078 *
*    H      41     -0.00000017   0.00000097  -0.00000078 *
*    H      42     -0.00000017   0.00000097  -0.00000078 *
*    H      43     -0.00000017   0.00000097  -0.00000078 *
*    Fe     44     -0.00000017   0.00000097  -0.00000078 *
*    O      45     -0.00000017   0.00000097  -0.00000078 *
*    O      46     -0.00000017   0.00000097  -0.00000078 *
*    O      47     -0.00000017   0.00000097  -0.00000078 *
*    C      48     -0.00000017   0.00000097  -0.00000078 *
*    C      49     -0.00000017   0.00000097  -0.00000078 *
*    C      50     -0.00000017   0.00000097  -0.00000078 *
*    C      51     -0.00000017   0.00000097  -0.00000078 *
*    H      52     -0.00000017   0.00000097  -0.00000078 *
*    H      53     -0.00000017   0.00000097  -0.00000078 *
*    H      54     -0.00000017   0.00000097  -0.00000078 *
*    C      55     -0.00000017   0.00000097  -0.00000078 *
*    H      56     -0.00000017   0.00000097  -0.00000078 *
*    H      57     -0.00000017   0.00000097  -0.00000078 *
*    H      58     -0.00000017   0.00000097  -0.00000078 *
*    C      59     -0.00000017   0.00000097  -0.00000078 *
*    H      60     -0.00000017   0.00000097  -0.00000078 *
*    H      61     -0.00000017   0.00000097  -0.00000078 *
*    H      62     -0.00000017   0.00000097  -0.00000078 *
*    C      63     -0.00000017   0.00000097  -0.00000078 *
*    H      64     -0.00000017   0.00000097  -0.00000078 *
*    H      65     -0.00000017   0.00000097  -0.00000078 *
*    H      66     -0.00000017   0.00000097  -0.00000078 *
*    C      67     -0.00000017   0.00000097  -0.00000078 *
*    H      68     -0.00000017   0.00000097  -0.00000078 *
*    H      69     -0.00000017   0.00000097  -0.00000078 *
*    H      70     -0.00000017   0.00000097  -0.00000078 *
*    C      71     -0.00000017   0.00000097  -0.00000078 *
*    H      72     -0.00000017   0.00000097  -0.00000078 *
*    H      73     -0.00000017   0.00000097  -0.00000078 *
*    H      74     -0.00000017   0.00000097  -0.00000078 *
*    C      75     -0.00000017   0.00000097  -0.00000078 *
*    H      76     -0.00000017   0.00000097  -0.00000078 *
*    H      77     -0.00000017   0.00000097  -0.00000078 *
*    H      78     -0.00000017   0.00000097  -0.00000078 *
*    C      79     -0.00000017   0.00000097  -0.00000078 *
*    H      80     -0.00000017   0.00000097  -0.00000078 *
*    H      81     -0.00000017   0.00000097  -0.00000078 *
*    H      82     -0.00000017   0.00000097  -0.00000078 *
*    C      83     -0.00000017   0.00000097  -0.00000078 *
*    H      84     -0.00000017   0.00000097  -0.00000078 *
*    H      85     -0.00000017   0.00000097  -0.00000078 *
*    H      86     -0.00000017   0.00000097  -0.00000078 *
*                                                        *
**********************************************************
TOTAL:             -0.00001471   0.00008379  -0.00006746

********************* Unconstrained **********************
************************* Forces *************************
*                                                        *
* Element  Atom         Cartesian components (Eh/a)      *
* ------------------------------------------------------ *
*                       x            y            z      *
*                                                        *
*    Fe      1     -0.00389085  -0.01022640   0.00416551 *
*    O       2     -0.00047442   0.00534091   0.00111251 *
*    O       3      0.00949285   0.00488817   0.00013656 *
*    O       4      0.00089748   0.00821277  -0.00953730 *
*    C       5     -0.00210130  -0.00165038  -0.00277763 *
*    C       6     -0.00078683   0.00262215  -0.00250924 *
*    C       7     -0.00293229  -0.00165383   0.00375307 *
*    C       8      0.00038301  -0.00110932  -0.00012350 *
*    H       9      0.00418092   0.00057614  -0.00139008 *
*    H      10     -0.00187953  -0.00269622  -0.00279717 *
*    H      11      0.00051437  -0.00201978   0.00339926 *
*    C      12     -0.00113996  -0.00029670   0.00001099 *
*    H      13     -0.00015468  -0.00177101   0.00396311 *
*    H      14     -0.00213116  -0.00301337  -0.00239299 *
*    H      15     -0.00261776   0.00343999   0.00001663 *
*    C      16     -0.00025643   0.00024432  -0.00123735 *
*    H      17     -0.00197018   0.00344617   0.00014975 *
*    H      18     -0.00192956  -0.00269628  -0.00297357 *
*    H      19      0.00371349   0.00110088  -0.00149722 *
*    C      20      0.00157491  -0.00029737  -0.00011433 *
*    H      21      0.00271405   0.00118649   0.00313680 *
*    H      22      0.00014067   0.00288811  -0.00305836 *
*    H      23      0.00156152  -0.00371161  -0.00163313 *
*    C      24      0.00002827   0.00172949   0.00036256 *
*    H      25     -0.00397616  -0.00015917   0.00145928 *
*    H      26     -0.00000881   0.00322249  -0.00293615 *
*    H      27      0.00245000   0.00134982   0.00322765 *
*    C      28     -0.00033257  -0.00015648  -0.00123709 *
*    H      29      0.00096693  -0.00385458  -0.00168343 *
*    H      30     -0.00003721   0.00285932  -0.00341898 *
*    H      31     -0.00401150  -0.00053402   0.00102093 *
*    C      32     -0.00068281  -0.00048197   0.00115315 *
*    H      33      0.00039010  -0.00386276  -0.00094369 *
*    H      34     -0.00399521   0.00025074   0.00192212 *
*    H      35      0.00288852   0.00067225   0.00295058 *
*    C      36     -0.00052569  -0.00033711  -0.00106333 *
*    H      37      0.00008263   0.00261034  -0.00354752 *
*    H      38     -0.00392401   0.00061530   0.00160991 *
*    H      39      0.00017113  -0.00422223  -0.00152939 *
*    C      40      0.00041507   0.00160999   0.00035510 *
*    H      41      0.00294845   0.00115201   0.00278436 *
*    H      42     -0.00380494   0.00066908   0.00191778 *
*    H      43      0.00026855   0.00294119  -0.00328740 *
*    Fe     44      0.00388712   0.01022614  -0.00416265 *
*    O      45      0.00047276  -0.00533863  -0.00110977 *
*    O      46     -0.00949557  -0.00488339  -0.00013708 *
*    O      47     -0.00090722  -0.00821328   0.00952975 *
*    C      48      0.00210574   0.00164801   0.00274875 *
*    C      49      0.00079988  -0.00266284   0.00250671 *
*    C      50      0.00294065   0.00168680  -0.00373486 *
*    C      51     -0.00035417   0.00111271   0.00016299 *
*    H      52     -0.00418285  -0.00057337   0.00138998 *
*    H      53      0.00187901   0.00270139   0.00279629 *
*    H      54     -0.00051338   0.00201976  -0.00339619 *
*    C      55      0.00112737   0.00028900   0.00000894 *
*    H      56      0.00015536   0.00177202  -0.00396459 *
*    H      57      0.00212833   0.00301216   0.00238979 *
*    H      58      0.00261489  -0.00343084  -0.00001472 *
*    C      59      0.00023512  -0.00027645   0.00123048 *
*    H      60      0.00196617  -0.00343969  -0.00015100 *
*    H      61      0.00193121   0.00269835   0.00297083 *
*    H      62     -0.00371227  -0.00109976   0.00149749 *
*    C      63     -0.00158116   0.00030073   0.00011798 *
*    H      64     -0.00271421  -0.00118495  -0.00313799 *
*    H      65     -0.00014065  -0.00288547   0.00305607 *
*    H      66     -0.00156189   0.00371460   0.00163183 *
*    C      67     -0.00001206  -0.00173482  -0.00034005 *
*    H      68      0.00397121   0.00016133  -0.00145836 *
*    H      69      0.00000978  -0.00322211   0.00293519 *
*    H      70     -0.00244906  -0.00134812  -0.00322901 *
*    C      71      0.00033122   0.00021065   0.00123131 *
*    H      72     -0.00096838   0.00385867   0.00168247 *
*    H      73      0.00003744  -0.00285681   0.00341686 *
*    H      74      0.00401192   0.00053509  -0.00102317 *
*    C      75      0.00066939   0.00045907  -0.00116402 *
*    H      76     -0.00039343   0.00385882   0.00093466 *
*    H      77      0.00399504  -0.00025040  -0.00191879 *
*    H      78     -0.00288427  -0.00066364  -0.00294850 *
*    C      79      0.00052774   0.00029237   0.00107402 *
*    H      80     -0.00008173  -0.00260865   0.00354413 *
*    H      81      0.00392579  -0.00061232  -0.00160683 *
*    H      82     -0.00017447   0.00421559   0.00152452 *
*    C      83     -0.00040469  -0.00160610  -0.00037523 *
*    H      84     -0.00294856  -0.00114931  -0.00278884 *
*    H      85      0.00380665  -0.00066640  -0.00192044 *
*    H      86     -0.00026881  -0.00294346   0.00328229 *
*                                                        *
**********************************************************
* TOTAL:            0.00000000  -0.00000000   0.00000000 *
**********************************************************
 
 
***********************************************************
********** Summary of Forces (values in Eh/a) *************
*                                                         *
* ---------------------- Minimum ------------------------ *
* Atom:        55, |F|min =    0.00116386                 *
* Components:     Fx|min       Fy|min       Fz|min        *
*               0.00112737   0.00028900   0.00000894      *
*                                                         *
* ---------------------- Maximum ------------------------ *
* Atom:         4, |F|max =    0.01261805                 *
* Components:     Fx|max       Fy|max       Fz|max        *
*               0.00089748   0.00821277  -0.00953730      *
*                                                         *
* ---------------- Root Mean Square Force --------------- *
*                  |F|rms =    0.00484592                 *
* Components:     Fx|rms       Fy|rms       Fz|rms        *
*               0.00260064   0.00308894   0.00267919      *
***********************************************************
 

------------------------------ TIMING INFORMATION ------------------------------
AVERAGE TIME:   10166.824s on      6 proc(s)                                    
TOTAL TIME:     10166.824s on      6 proc(s)                                    
==================== AVERAGE TIMINGS FROM ALL PROCS (CUMULATIVE) =====================
|| TAG                                         #calls     cpu time   %total  Gflops ||
|| onetep.F90 main loop imbalance             :     1        0.00s   0.000%  ------ ||
|| hubbard_species_proj                       :     1        0.00s   0.000%  ------ ||
|| hash_table_free                            :    31        0.00s   0.000%  ------ ||
|| hubbard_projector_character                :     1        0.00s   0.000%  ------ ||
|| hubbard_ngwf_select                        :     1        0.00s   0.000%  ------ ||
|| linalg_invert_sym_matrix                   :     2        0.00s   0.000%  ------ || (2 procs only)
|| hubbard_ngwf_on_grid                       :     1        0.00s   0.000%  ------ ||
|| hubbard_tensorial_correction               :     2        0.00s   0.000%  ------ ||
|| sparse_spam3toblacs_real_fast_imbal        :     6        0.00s   0.000%  ------ ||
|| ewald_calculate_forces_realspace           :     1        0.00s   0.000%  ------ ||
|| sparse_blacstospam3_real_fast_imbal        :    24        0.00s   0.000%  ------ ||
|| onetep.F90 final imbalance                 :     1        0.00s   0.000%  ------ ||
|| linalg_dsyev_lt                            :   164        0.01s   0.000%  ------ || (1 procs only)
|| sparse_spam3toblacs_real_fast_B2           :    36        0.00s   0.000%  ------ ||
|| density_fftbox_interp_mult_imbal           : 11424        0.00s   0.000%  ------ ||
|| sw_bessel_init_cpu                         :     1        0.01s   0.000%  ------ || (1 procs only)
|| sparse_spam3toblacs_real_fast_B1           :    36        0.00s   0.000%  ------ ||
|| sparse_set_to_garbage                      :   457        0.00s   0.000%  ------ ||
|| sparse_spam3toblacs_real_fast              :     6        0.01s   0.000%  ------ ||
|| ewald_calculate_energy                     :     1        0.01s   0.000%  ------ ||
|| hubbard_projection_mtx                     :    33        0.01s   0.000%  ------ ||
|| paw_dij_hartree                            :   182        0.02s   0.000%  ------ ||
|| ewald_calculate_forces_recipspace          :     1        0.02s   0.000%  ------ ||
|| ewald_calculate_forces                     :     1        0.02s   0.000%  ------ ||
|| sparse_init                                :     1        0.03s   0.000%  ------ ||
|| linalg_dgemv                               :   127        0.03s   0.000%  ------ ||
|| paw_tcore_density                          :     1        0.03s   0.000%  ------ ||
|| dense_eigensolve                           :     2        0.03s   0.000%  ------ ||
|| sparse_blacstospam3_real_fast              :    24        0.04s   0.000%  ------ ||
|| sw_init                                    :   343        0.06s   0.001%  ------ ||
|| hubbard_projector_ham                      :    81        0.10s   0.001%  ------ ||
|| sparse_embed_array_hotelling_invert        :    31        0.13s   0.001%  ------ ||
|| basis_extract_function_from_box            :  2133        0.13s   0.001%  ------ ||
|| palser_mano_kernel_optimise_spam3_embed    :     2        0.15s   0.001%  ------ ||
|| hubbard_ham_matrix                         :    82        0.16s   0.002%  ------ ||
|| augmentation_density_forces                :     1        0.21s   0.002%  ------ ||
|| hubbard_calculate_forces                   :     1        0.30s   0.003%  ------ ||
|| hubbard_energy_total                       :   164        0.50s   0.005%  ------ ||
|| restart_kernel_write                       :    17        0.51s   0.005%  ------ ||
|| paw_tcore_hartree_on_grid                  :     1        0.53s   0.005%  ------ ||
|| pseudo_make_structure_factor               :     1        0.60s   0.006%  ------ ||
|| kernel_purify                              :   256        0.80s   0.008%  ------ ||
|| ngwfs_initialise_from_radial               :     2        0.87s   0.009%  ------ ||
|| lnv_gradient_norm                          :    80        1.02s   0.010%  ------ ||
|| paw_sphere_density_on_grid                 :     1        1.07s   0.011%  ------ ||
|| sparse_trace                               :  6902        1.11s   0.011%  ------ ||
|| kernel_fix                                 :    80        1.36s   0.013%  ------ ||
|| nonsc_forces_ngwfs_calc                    :     1        1.37s   0.013%  ------ ||
|| integrals_grad_spam3                       :     2        1.66s   0.016%  ------ ||
|| paw_dataset_init                           :     4        1.75s   0.017%  ------ ||
|| paw_tcore_hartree_calc_forces              :     1        1.80s   0.018%  ------ ||
|| function_ops_brappd_ketppd_spam3           :    64        2.42s   0.024%  ------ ||
|| ngwf_gradient_coeffs                       :    16        4.06s   0.040%  ------ ||
|| paw_species_calc_proj_prec_mat             :     1        4.20s   0.041%  ------ ||
|| hubbard_projector_update                   :     1        5.09s   0.050%  ------ ||
|| paw_nlcc_calculate_forces                  :     1        5.67s   0.056%  ------ ||
|| energy_and_force_init_cell                 :     1        7.04s   0.069%  ------ ||
|| sparse_product                             : 11620        7.59s   0.075%  ------ ||
|| projectors_func_grad_ovlp_box_spam3        :     3        8.15s   0.080%  ------ ||
|| aug_nl_calculate_forces                    :     1        8.45s   0.083%  ------ ||
|| eigenstates_calculate                      :     1       13.24s   0.130%  ------ ||
|| integrals_kinetic_spam3                    :    31       23.86s   0.235%  ------ ||
|| basis_copy_function_to_box                 : 19568       25.65s   0.252%  ------ ||
|| augmentation_screen_dij_spam3              :   174       25.81s   0.254%  ------ ||
|| restart_ngwfs_tightbox_output              :    15       27.94s   0.275%  ------ ||
|| fourier_apply_box_pair                     :  2678       31.34s   0.308%  84.631 ||
|| aug_nonlocal_mat_spam3_embed_array         :   165       35.65s   0.351%  ------ ||
|| basis_dot_function_with_box                : 1.697M      36.73s   0.361%  ------ ||
|| paw_dij_xc                                 :   182       38.22s   0.376%  ------ ||
|| cell_grid_extract_box_real                 : 12854       44.41s   0.437%  ------ ||
|| forces_calculate                           :     1       53.10s   0.522%  ------ ||
|| integrals_locpot_mat_els_batch             :   540       58.58s   0.576%  ------ ||
|| density_init_guess_real                    :     2       62.53s   0.615%  ------ ||
|| fourier_filter_cell                        :   212       67.76s   0.666%  23.776 ||
|| aug_density_on_grid_spam3                  :   168       68.02s   0.669%  ------ ||
|| density_batch_row_sums                     :  1008       72.37s   0.712%  ------ ||
|| cell_grid_deposit_box_real                 : 17728       96.95s   0.954%  ------ ||
|| hartree_on_grid_single                     :   167      102.86s   1.012%  ------ ||
|| basis_add_function_to_box                  : 3.105M     112.50s   1.107%  ------ ||
|| fourier_interpolate_cell                   :   336      120.35s   1.184%  21.216 ||
|| projectors_func_ovlp_box_spam3             :    65      137.73s   1.355%  ------ ||
|| projectors_init_fftbox_recip               :   357      138.52s   1.362%  ------ ||
|| density_fftbox_deposit_to_cell             : 11424      198.31s   1.951%  ------ ||
|| hamiltonian_energy_components              :     4      213.18s   2.097%  ------ ||
|| properties_calculate                       :     1      223.97s   2.203%  ------ ||
|| fourier_filter                             :  4126      299.31s   2.944%  ------ ||
|| fourier_apply_cell_forward                 :  1504      387.29s   3.809%  26.558 ||
|| fourier_apply_cell_backward                :  1504      469.24s   4.615%  21.919 ||
|| fourier_interpolate                        :  4126      666.73s   6.558%  ------ ||
|| xc_energy_potential                        :   167      917.63s   9.026%  ------ ||
|| potential_apply_to_ngwf_batch              :   540     1222.30s  12.022%  ------ ||
|| integrals_locpot_dbl_grid                  :   180     1281.01s  12.600%  ------ ||
|| fourier_interpolate_product                : 11200     1475.69s  14.515%  ------ ||
|| density_fftbox_interpolate_multiply        : 11424     1595.22s  15.690%  ------ ||
|| fourier_apply_box                          : 77369     1657.27s  16.301% 127.038 ||
|| projectors_gradient_batch                  :   192     1841.92s  18.117%  ------ ||
|| projectors_grad_precond_batch              :    96     2078.61s  20.445%  ------ ||
|| density_batch_interp_deposit               :  1008     2141.22s  21.061%  ------ ||
|| density_on_dbl_grid                        :   336     2286.03s  22.485%  ------ ||
|| hamiltonian_lhxc_calculate                 :   161     3524.29s  34.665%  ------ ||
|| ngwf_gradient_build_batch                  :    96     4290.69s  42.203%  ------ ||
|| lnv_denskernel_optimise_cg                 :    16     4391.21s  43.192%  ------ ||
|| ngwf_gradient_batch                        :    96     4521.62s  44.474%  ------ ||
|| ngwf_gradient_lnv                          :    16     4627.70s  45.518%  ------ ||
|| ngwf_cg_optimise                           :     1     9777.42s  96.170%  ------ ||
|| energy_and_forces                          :     1    10159.09s  99.924%  ------ ||
|| total_time                                 :     1    10166.82s 100.000%  ------ ||
======================================================================================
Overhead of generating timer report: 
- 0 ms averaging over threads,
- 0 ms ensuring consistency across MPI ranks,
- 0 ms printing in order.

Job completed: 27-06-2025 12:06 (+0100)

onetep_launcher: ONETEP seems to have finished correctly (zero exit code).
                 Brought to you by PID 197642 on nid006836.
