==================================================================================
It's Sat 28 Jun 2025 12:10:10 PM BST.
*** Starting onetep_launcher (node nid002626, PIDs 149774 149775 149776 149777 149778 149779)...
    - ONETEP arguments: Fe3_O_piv_6_H2O_3_LowSpin_NGWFSP.dat
    - Current directory: /mnt/lustre/a2fs-work3/work/e89/e89/phsmea/onetep_ali/Fe3_O_Piv_6_H2O_3/LS/sp
    - Launcher executable directory: /mnt/lustre/a2fs-work3/work/e89/e89/phsmea/onetep_ali
    - (-e) ONETEP executable specified through command-line: /work/e89/e89/phsmea/onetep.archer2_2024_cray_2
      ... trying /work/e89/e89/phsmea/onetep.archer2_2024_cray_2
          -> looks OK
*** Setting up environment...
    - (-s) Process stack size: unlimited
    - (-t) OMP_NUM_THREADS: 8
    - (-o) OMP_STACKSIZE: 64M
    - (-c) Maximum core file size: 2048000
    - (-d) decfort_dump_flag: n
    - (-m) I_MPI_OFA_TRANSLATION_CACHE: 0
    - (-m) I_MPI_DAPL_TRANSLATION_CACHE: 0
    - (-m) I_MPI_DAPL_UD_TRANSLATION_CACHE: 0
*** Starting ONETEP...
    - /work/e89/e89/phsmea/onetep.archer2_2024_cray_2 Fe3_O_piv_6_H2O_3_LowSpin_NGWFSP.dat
=================================================================================
_________________________________________________________________________________
 +---------------------------------------------------------------+
 |                                                               |
 |        ####### #     # ####### ####### ####### ######         |
 |        #     # ##    # #          #    #       #     #        |
 |        #     # # #   # #          #    #       #     #        |
 |        #     # #  #  # #####      #    #####   ######         |
 |        #     # #   # # #          #    #       #              |
 |        #     # #    ## #          #    #       #              |
 |        ####### #     # #######    #    ####### #              |
 |                                                               |
 |        Linear-Scaling Ab Initio Total Energy Program          |
 |                                                               |
 |          Release for academic collaborators of ODG            |
 |                                             Version 7.3.0     |
 | Remote: git@github.com:Miesaz/onetep_mea.git                  |
 | Local branch: master                                          |
 | Commit ID: 4af45e89288c8df5499704252eec3e032ee3d0c8           |
 | Date: Tue Aug 6 11:28:44 2024 +0100                           |
 | Locally modified files:                                       |
 |   src/hubbard_build_mod.F90                                   |
 |   src/services_mod.F90                                        |
 |                                                               |
 +---------------------------------------------------------------+
 |                                                               |
 |  Authors:                                                     |
 |  Jacek Dziedzic, Peter D. Haynes, Nicholas D. M. Hine,        |
 |  Arash A. Mostofi, Mike C. Payne and Chris-Kriton Skylaris    |
 |                                                               |
 |  Contributors:                                                |
 |  J. Aarons, L. Andrinopoulos, P. W. Avraam, R. A. Bell,       |
 |  A. Bhandari, G. A. Bramley, R. J. Charlton, S. J. Clark,     |
 |  R. J. Clements, G. C. Constantinescu, F. Corsetti,           |
 |  N. Corsini, O. Dieguez, S. M. M. Dubois, K. K. B. Duff,      |
 |  J. M. Escartin, M. Escobar Azor, A. Greco,                   |
 |  H. Helal, Q. O. Hill, L. P. Lee, J.-H. Li,                   |
 |  T. Li, E. B. Linscott, G. Moynihan, D. D. O`Regan,           |
 |  O. K. Okan, E. Parkinson, M. J. S. Phipps,                   |
 |  C. J. Pickard, J. C. A. Prentice, M. I. J. Probert,          |
 |  L. E. Ratcliff, M. Robinson, A. Ruiz Serrano,                |
 |  M. dos Santos Dias, J. S. Spencer, E. W. Tait,               |
 |  G. Teobaldi, D. Turban, V. Vitale, K. A. Wilkinson,          |
 |  C. Weber, J. C. Womack, Chengcheng Xiao, N. Yeung,           |
 |  and T. J. Zuehlsdorff.                                       |
 |                                                               |
 |                                   Copyright (c) 2004-2025     |
 |                                                               |
 |  Please cite:                                                 |
 |  "The ONETEP linear-scaling density functional theory program"|
 |   J. Chem. Phys. 152(17) 174111 (2020)                        |
 |                                                               |
 |          in all publications arising from your use of ONETEP. |
 |                                                               |
 +---------------------------------------------------------------+
 |                                                               |
 |   ONETEP is based on developments described in the following  |
 |   publications:                                               |
 |                                                               |
 |  "Nonorthogonal generalized Wannier function pseudopotential  |
 |   plane-wave method".                                         |
 |   C.-K. Skylaris, A. A. Mostofi, P. D. Haynes, O. Dieguez,    |
 |   M. C. Payne.                                                |
 |   Phys. Rev. B 66 035119 (2002).                              |
 |                                                               |
 |  "Preconditioned iterative minimization for linear-scaling    |
 |   electronic structure calculations".                         |
 |   A. A. Mostofi, P. D. Haynes, C.-K. Skylaris, M. C. Payne.   |
 |   J. Chem. Phys. 119(17), pp.8842-8848 (2003).                |
 |                                                               |
 |  "Total-energy calculations on a real space grid with         |
 |   localized functions and a plane-wave basis".                |
 |   A. A. Mostofi, C.-K. Skylaris, P. D. Haynes, M. C. Payne.   |
 |   Comput. Phys. Commun. 147, pp.788-802 (2002).               |
 |                                                               |
 |  "Accurate kinetic energy evaluation in electronic structure  |
 |   calculations with localized functions on real space grids"  |
 |   C.-K. Skylaris, A. A. Mostofi, P. D. Haynes, C. J. Pickard, |
 |   M. C. Payne.                                                |
 |   Comput. Phys. Commun. 140, pp.315-322 (2001).               |
 |                                                               |
 |  "Accurate ionic forces and geometry optimization in linear-  |
 |   scaling density-functional theory with local orbitals"      |
 |   N. D. M. Hine, M. Robinson, P. D. Haynes, C.-K. Skylaris,   |
 |   M. C. Payne, and A. A. Mostofi.                             |
 |   Phys. Rev. B 83 195102 (2011).                              |
 |                                                               |
 +---------------------------------------------------------------+

Job started: 28-06-2025 12:10 (+0100)
 
Reading parameters from file "Fe3_O_piv_6_H2O_3_LowSpin_NGWFSP.dat" ...... done

If your calculation crashes here, before "Checking processes and threads..."
is displayed, then your stack size is insufficient.
If so, use "ulimit -s unlimited" at runtime.
You can disable this check with "check_stack_size F".

Checking processes and threads...
   Determining the default number of threads...
      No default threads set at compilation time: defaulting to 1.
      OpenMP library call suggests 8 threads.
      Hybrid MPI-OpenMP compilation detected.
      Number of MPI processes > 1.
      OMP_NUM_THREADS environment variable present and
      its value matches the one obtained from the OpenMP library call.
      Using this value as default.
      Default threads: 8
      Default applies to threads_max and threads_num_fftboxes.
      Settings in the input file override this default.
   ... done

   Running with 6 MPI processes.
   There are 6 MPI processes running on the same node as the root process.
   Each MPI process is using: 
               1 threads for simulation cell FFTs.
               1 threads for threaded FFT box operations.
               8 threads for loops over batched FFT box operations.
               8 threads in other parallel regions.
   MPI Interface: S1 (use mpi_f08) (-DMPI -DUSE_MPI_F08).
   MPI_ASYNC_PROTECTS_NONBLOCKING: Yes. MPI_SUBARRAYS_SUPPORTED: Yes.
   FFTW Interface: OMP-capable and MODERN. (-DUSE_MODERN_FFTW specified).
   GPU Interface: None.
   GPU FFT Backend: None.
... done

Basic input checks...... done

Reading geometry and species blocks from file "Fe3_O_piv_6_H2O_3_LowSpin_NGWFSP.dat" ...
  <species_atomic_set> block not found: NGWF initialisation set to SOLVE
    
  Number of PPD points along a3 set to 1.  This is 
  the default value, it may have been provided also in the input file.
... done


--------------------------------------------------------------------------------
---------------------------------- INPUT FILE ----------------------------------
--------------------------------------------------------------------------------

charge : 1                                                                      
cutoff_energy : 800 eV                                                          
do_properties : T                                                               
edft : F                                                                        
fine_grid_scale : 4                                                             
forces_output_detail : VERBOSE                                                  
output_detail : VERBOSE                                                         
paw : T                                                                         
pseudo_path : ../../..                                                          
spin : 3                                                                        
task : SINGLEPOINT                                                              
write_denskern : T                                                              
write_forces : T                                                                
write_tightbox_ngwfs : T                                                        
xc_functional : pbe                                                             
ngwfs_spin_polarised: T                                                         
%BLOCK HUBBARD                                                                  
Fe 2 4.0 0 -10 0 0                                                              
%ENDBLOCK HUBBARD                                                               
%BLOCK LATTICE_CART                                                             
ang                                                                             
32.50833397       0.00000000       0.00000000                                   
0.00000000      31.98669797       0.00000000                                    
0.00000000       0.00000000      30.19651969                                    
%ENDBLOCK LATTICE_CART                                                          
%BLOCK POSITIONS_ABS                                                            
ang                                                                             
Fe    17.232977    14.674734    15.129679                                       
Fe    16.288038    16.052617    12.445793                                       
Fe    14.867580    16.761214    15.192830                                       
O    16.117098    15.813839    14.246859                                        
O    18.480700    13.450910    16.169303                                        
H    19.218538    13.184343    15.609244                                        
H    18.838228    13.997290    16.881215                                        
O    16.525653    16.363871    10.449989                                        
H    17.412060    16.056077    10.224395                                        
H    16.535972    17.325296    10.353496                                        
O    13.484174    17.843520    16.211723                                        
H    13.687095    17.808913    17.153446                                        
H    13.618064    18.754630    15.920891                                        
O    18.850973    15.464757    14.470664                                        
O    18.223531    16.061945    12.413949                                        
O    17.350850    13.332002    13.776299                                        
O    16.281304    14.196364    12.025062                                        
O    16.319589    17.976360    12.475096                                        
O    15.001883    18.422796    14.214284                                        
O    14.423282    16.091998    12.083003                                        
O    13.440899    16.185049    14.082825                                        
O    16.092854    17.479959    16.487576                                        
O    17.448219    15.729817    16.735971                                        
O    14.416736    15.370366    16.417881                                        
O    15.797496    13.700069    15.908365                                        
C    19.082663    15.911531    13.318631                                        
C    20.509271    16.358586    13.004001                                        
C    20.879134    15.954587    11.578044                                        
H    20.216405    16.417192    10.846529                                        
H    20.839039    14.870694    11.445680                                        
H    21.898967    16.279499    11.362410                                        
C    20.515122    17.888165    13.127167                                        
H    19.797657    18.341041    12.440388                                        
H    21.509840    18.268571    12.884948                                        
H    20.271975    18.204584    14.144427                                        
C    21.502935    15.756999    13.990930                                        
H    21.514294    14.666075    13.930897                                        
H    21.271773    16.042245    15.017397                                        
H    22.508334    16.112385    13.756074                                        
C    16.815270    13.243145    12.642295                                        
C    16.775373    11.869245    11.979248                                        
C    15.412805    11.266493    12.349002                                        
H    14.593295    11.878970    11.968457                                        
H    15.306321    11.169565    13.431808                                        
H    15.327310    10.270307    11.909187                                        
C    17.893008    10.979850    12.513100                                        
H    18.877190    11.399905    12.291734                                        
H    17.833905    10.000000    12.034706                                        
H    17.813557    10.839239    13.591030                                        
C    16.889266    12.011868    10.463958                                        
H    17.846027    12.457130    10.178932                                        
H    16.089446    12.631107    10.058614                                        
H    16.831271    11.024997    10.000000                                        
C    15.682489    18.766568    13.216162                                        
C    15.760153    20.261135    12.910908                                        
C    16.445206    20.515707    11.573964                                        
H    16.509689    21.591603    11.399419                                        
H    15.881542    20.079848    10.745741                                        
H    17.457094    20.108826    11.557283                                        
C    14.344110    20.839563    12.888028                                        
H    14.392337    21.907685    12.666670                                        
H    13.844420    20.715507    13.849087                                        
H    13.730744    20.364993    12.118305                                        
C    16.570642    20.908157    14.040531                                        
H    16.624287    21.986698    13.877831                                        
H    17.592218    20.521225    14.068755                                        
H    16.108156    20.728849    15.012105                                        
C    13.423411    16.007857    12.841517                                        
C    12.093661    15.643973    12.185254                                        
C    12.192272    14.165342    11.790211                                        
H    11.271217    13.863126    11.286928                                        
H    12.317941    13.528368    12.669501                                        
H    13.029898    13.996262    11.111568                                        
C    11.904360    16.499162    10.931799                                        
H    10.966775    16.223020    10.444687                                        
H    12.719012    16.351190    10.222989                                        
H    11.849309    17.561888    11.181494                                        
C    10.932470    15.852107    13.148747                                        
H    10.000000    15.565583    12.657656                                        
H    10.847916    16.896944    13.453404                                        
H    11.046099    15.249205    14.050063                                        
C    17.023882    16.862027    17.068156                                        
C    17.669979    17.558554    18.263948                                        
C    18.200852    18.916178    17.795102                                        
H    18.969830    18.800648    17.027103                                        
H    18.648880    19.441924    18.640982                                        
H    17.399330    19.534296    17.390033                                        
C    16.587312    17.768280    19.327105                                        
H    16.165191    16.817581    19.662316                                        
H    15.779668    18.395735    18.946926                                        
H    17.020066    18.267624    20.196520                                        
C    18.807481    16.724490    18.838478                                        
H    19.252918    17.250664    19.685290                                        
H    19.592551    16.557166    18.098410                                        
H    18.454847    15.755160    19.196032                                        
C    14.768275    14.160945    16.453923                                        
C    13.882015    13.206061    17.247662                                        
C    12.445942    13.338510    16.736455                                        
H    11.793012    12.681013    17.314511                                        
H    12.370971    13.045333    15.686237                                        
H    12.083721    14.362077    16.833474                                        
C    13.950884    13.637408    18.716935                                        
H    13.319619    12.978306    19.316748                                        
H    13.595739    14.660865    18.845823                                        
H    14.970160    13.567885    19.105344                                        
C    14.364436    11.768340    17.104442                                        
H    13.718749    11.111014    17.690739                                        
H    15.388712    11.649232    17.459574                                        
H    14.330248    11.438440    16.064717                                        
%ENDBLOCK POSITIONS_ABS                                                         
%BLOCK SPECIES                                                                  
C C 6 -1 10.0                                                                   
Fe Fe 26 -1 10.0                                                                
H H 1 -1 10.0                                                                   
O O 8 -1 10.0                                                                   
%ENDBLOCK SPECIES                                                               
%BLOCK SPECIES_POT                                                              
C C.PBE-paw.abinit                                                              
Fe Fe.PBE-paw.abinit                                                            
H H.PBE-paw.abinit                                                              
O O.PBE-paw.abinit                                                              
%ENDBLOCK SPECIES_POT                                                           

--------------------------------------------------------------------------------
-------------------------------- END INPUT FILE --------------------------------
--------------------------------------------------------------------------------


 
 ESDF WARNING(1): "charge" (esdf_physical) has no units. Assume "e".
<<<<<<<<<<<<<<<<<<<<<<<<<<<<<<<<< Full system >>>>>>>>>>>>>>>>>>>>>>>>>>>>>>>>>>
<<<<<<<<<<<<<<<<<<<<<<<<<<< PAW Dataset information >>>>>>>>>>>>>>>>>>>>>>>>>>>
File: Fe.PBE-paw.abinit; rc = 2.12 bohr; shape type =  2; rshape = 1.81 bohr;
  Atomic number: 26;  ionic charge: 16.000000
    Partial Wave 1: l = 0
    Partial Wave 2: l = 0
    Partial Wave 3: l = 1
    Partial Wave 4: l = 1
    Partial Wave 5: l = 2
    Partial Wave 6: l = 2
  Core charge supplied for Nonlinear Core Corrections
File: O.PBE-paw.abinit; rc = 1.41 bohr; shape type =  2; rshape = 1.20 bohr;
  Atomic number:  8;  ionic charge:  6.000000
    Partial Wave 1: l = 0
    Partial Wave 2: l = 0
    Partial Wave 3: l = 1
    Partial Wave 4: l = 1
  Core charge supplied for Nonlinear Core Corrections
File: H.PBE-paw.abinit; rc = 0.90 bohr; shape type =  2; rshape = 0.80 bohr;
  Atomic number:  1;  ionic charge:  1.000000
    Partial Wave 1: l = 0
    Partial Wave 2: l = 0
    Partial Wave 3: l = 1
File: C.PBE-paw.abinit; rc = 1.51 bohr; shape type =  2; rshape = 1.30 bohr;
  Atomic number:  6;  ionic charge:  4.000000
    Partial Wave 1: l = 0
    Partial Wave 2: l = 0
    Partial Wave 3: l = 1
    Partial Wave 4: l = 1
  Core charge supplied for Nonlinear Core Corrections
<<<<<<<<<<<<<<<<<<<<<<<<<<<<<<<<<<<<<<< >>>>>>>>>>>>>>>>>>>>>>>>>>>>>>>>>>>>>>>

-------------------------- Atom counting information ---------------------------
Symbol    Natoms    Nngwfs    Nprojs
  Fe         3        39        54
  O         16        64       128
  H         60        60       300
  C         30       120       240
.......   ......    ......    ......
Totals:    109       283       722
--------------------------------------------------------------------------------

=============================== PSINC grid sizes ===============================
                      Simulation cell:  125 x 125 x 117
                              FFT-box:  125 x 125 x 117
                                  PPD:    5 x   5 x   1
Grid space d1=  0.491454786359a0 (KE cutoff=  31.45117Eh = 855.83000eV)
Grid space d2=  0.483568792904a0 (KE cutoff=  32.48534Eh = 883.97119eV)
Grid space d3=  0.487719251553a0 (KE cutoff=  31.93480Eh = 868.99013eV)
================================================================================

********************* Fourier parallelisation information **********************
       Coarse grid (whole simulation cell) dimensions:    125   125   117
          Real-space ('12') slabs/proc (min max mean):     19    20    19
         Recip-space ('23') slabs/proc (min max mean):     10    11    10
********************************************************************************

********************* Fourier parallelisation information **********************
       Double grid (whole simulation cell) dimensions:    250   250   234
          Real-space ('12') slabs/proc (min max mean):     39    39    39
         Recip-space ('23') slabs/proc (min max mean):     21    21    21
********************************************************************************

********************* Fourier parallelisation information **********************
         Fine grid (whole simulation cell) dimensions:    500   500   468
          Real-space ('12') slabs/proc (min max mean):     78    78    78
         Recip-space ('23') slabs/proc (min max mean):     41    42    41
********************************************************************************

Atom SCF Calculation for C  : Z (AE atom) =   6 : Z (PS atom) =   4
Config String: 2s2.0 2p2.0
Orbitals (num,occ):  2     2.00 2.00
Orbitals   (num,l):  2        0    1
Real-space Grid (nr,dr,rmax): 1503    0.0066577896   10.0000000000
Spherical Bessel Basis (nsws,lmax,cutoff):   37    2  176.3967570603
Confining potential (l,width,scale):  0    3.0000000000  100.0000000000
Confining potential (l,width,scale):  1    3.0000000000  100.0000000000
  1         -5.4381308884   -1.2721298092    4.5135250045   -1.9381135692
  2         -5.3849331102   -1.3649505469    4.4159511708   -1.9005879768
  3         -5.3930021612   -1.3849430624    4.3947033354   -1.8924421815
  4         -5.4001802281   -1.3891927246    4.3902388137   -1.8907518289
  5         -5.4037205329   -1.3915457087    4.3877695258   -1.8898885469
  6         -5.4055416859   -1.3928069742    4.3864477540   -1.8894519912
  7         -5.4065002767   -1.3934742451    4.3857498837   -1.8892319620
  8         -5.4070074727   -1.3938267709    4.3853820092   -1.8891207968
  9         -5.4072763209   -1.3940130896    4.3851880206   -1.8890645345
 10         -5.4074189962   -1.3941116277    4.3850856600   -1.8890360408
 11         -5.4074947717   -1.3941637823    4.3850316039   -1.8890216105
 12         -5.4075350443   -1.3941914082    4.3850030336   -1.8890143059
 13         -5.4075564617   -1.3942060527    4.3849879208   -1.8890106114
 14         -5.4075678586   -1.3942138217    4.3849799198   -1.8890087446
 15         -5.4075739267   -1.3942179465    4.3849756804   -1.8890078024
 16         -5.4075771595   -1.3942201380    4.3849734321   -1.8890073276
 17         -5.4075788827   -1.3942213034    4.3849722389   -1.8890070886
 18         -5.4075798017   -1.3942219235    4.3849716050   -1.8890069685
 19         -5.4075802921   -1.3942222537    4.3849712680   -1.8890069082
 20         -5.4075805539   -1.3942224296    4.3849710888   -1.8890068781
 21         -5.4075806938   -1.3942225235    4.3849709933   -1.8890068630
 22         -5.4075807686   -1.3942225735    4.3849709424   -1.8890068555
Atom SCF converged after  22 iterations to a total energy of     -5.40758077

Atom SCF Calculation for Fe : Z (AE atom) =  26 : Z (PS atom) =  16
Config String: 3s2.0 3p6.0 3d6.0 4s2.0 4p0.0
Orbitals (num,occ):  5     2.00 6.00 6.00 2.00 0.00
Orbitals   (num,l):  5        0    1    2    0    1
Real-space Grid (nr,dr,rmax): 1503    0.0066577896   10.0000000000
Spherical Bessel Basis (nsws,lmax,cutoff):   37    4  176.3967570603
Confining potential (l,width,scale):  0    3.0000000000  100.0000000000
Confining potential (l,width,scale):  1    3.0000000000  100.0000000000
Confining potential (l,width,scale):  2    3.0000000000  100.0000000000
  1       -111.4005172118  -52.5575611559   72.2164000725   -4.0901868950
  2       -116.6635475262  -20.5601904919   91.7007084249   -2.2962490369
  3       -121.6156136875  -23.2753453277   92.4544705195   -2.7706732816
  4       -123.0066153699  -21.4164712440   94.7136519632   -2.9394413820
  5       -123.8168122141  -22.6370400734   94.1384349420   -3.0798102909
  6       -123.9055073486  -21.7222843370   94.9342614757   -3.0846520419
  7       -124.0956886241  -22.4138747628   94.4617720360   -3.1224050559
  8       -124.0492758687  -21.8887017510   94.8692044073   -3.1096545890
  9       -124.1222324005  -22.2877514631   94.5777385101   -3.1254730624
 10       -124.0894611846  -22.0431086758   94.7620026738   -3.1177312036
 11       -124.1066906466  -22.1417456915   94.6895757605   -3.1215019185
 12       -124.1027421480  -22.1090398813   94.7144439268   -3.1205307857
 13       -124.1039552528  -22.1131641559   94.7116547863   -3.1207645739
 14       -124.1041718268  -22.1127261003   94.7121170471   -3.1207931979
 15       -124.1043563153  -22.1126782042   94.7122440208   -3.1208211382
 16       -124.1044853288  -22.1126702816   94.7123114748   -3.1208409484
 17       -124.1045734258  -22.1126674103   94.7123551926   -3.1208545095
 18       -124.1046334193  -22.1126657134   94.7123845864   -3.1208637603
 19       -124.1046742816  -22.1126645462   94.7124045128   -3.1208700757
 20       -124.1047021281  -22.1126636961   94.7124180731   -3.1208743926
 21       -124.1047211147  -22.1126630559   94.7124273290   -3.1208773473
 22       -124.1047340666  -22.1126625637   94.7124336643   -3.1208793718
 23       -124.1047429056  -22.1126621807   94.7124380116   -3.1208807606
 24       -124.1047489402  -22.1126618812   94.7124410017   -3.1208817142
 25       -124.1047530616  -22.1126616468   94.7124430628   -3.1208823696
 26       -124.1047558771  -22.1126614637   94.7124444863   -3.1208828204
 27       -124.1047578011  -22.1126613212   94.7124454714   -3.1208831306
 28       -124.1047591161  -22.1126612109   94.7124461541   -3.1208833444
 29       -124.1047600152  -22.1126611259   94.7124466281   -3.1208834917
 30       -124.1047606300  -22.1126610607   94.7124469575   -3.1208835933
 31       -124.1047610504  -22.1126610110   94.7124471869   -3.1208836634
 32       -124.1047613380  -22.1126609733   94.7124473467   -3.1208837118
 33       -124.1047615347  -22.1126609447   94.7124474583   -3.1208837453
 34       -124.1047616693  -22.1126609232   94.7124475361   -3.1208837684
 35       -124.1047617614  -22.1126609071   94.7124475906   -3.1208837843
Atom SCF converged after  35 iterations to a total energy of   -124.10476176

Atom SCF Calculation for H  : Z (AE atom) =   1 : Z (PS atom) =   1
Config String: 1s1.0
Orbitals (num,occ):  1     1.00
Orbitals   (num,l):  1        0
Real-space Grid (nr,dr,rmax): 1503    0.0066577896   10.0000000000
Spherical Bessel Basis (nsws,lmax,cutoff):   37    2  176.3967570603
Confining potential (l,width,scale):  0    3.0000000000  100.0000000000
  1         -0.3348525927   -0.2401819449    0.2820953128   -0.2388448411
  2         -0.4038948821   -0.2405504229    0.2866889240   -0.2416217444
  3         -0.4360732773   -0.2390089543    0.2890729861   -0.2443653791
  4         -0.4497314704   -0.2383264046    0.2899315599   -0.2456060208
  5         -0.4551901081   -0.2381357631    0.2901452306   -0.2460489407
  6         -0.4573594294   -0.2381000300    0.2901742710   -0.2461947705
  7         -0.4582326910   -0.2381004501    0.2901659451   -0.2462415077
  8         -0.4585900702   -0.2381055523    0.2901559649   -0.2462564278
  9         -0.4587384807   -0.2381092319    0.2901497571   -0.2462612174
 10         -0.4588008132   -0.2381112609    0.2901465144   -0.2462627659
 11         -0.4588272086   -0.2381122698    0.2901449456   -0.2462632682
 12         -0.4588384507   -0.2381127465    0.2901442163   -0.2462634302
 13         -0.4588432580   -0.2381129655    0.2901438848   -0.2462634814
 14         -0.4588453195   -0.2381130645    0.2901437362   -0.2462634968
 15         -0.4588462053   -0.2381131088    0.2901436700   -0.2462635011
 16         -0.4588465865   -0.2381131284    0.2901436407   -0.2462635020
 17         -0.4588467508   -0.2381131372    0.2901436278   -0.2462635020
 18         -0.4588468216   -0.2381131410    0.2901436222   -0.2462635019
Atom SCF converged after  18 iterations to a total energy of     -0.45884682

Atom SCF Calculation for O  : Z (AE atom) =   8 : Z (PS atom) =   6
Config String: 2s2.0 2p4.0
Orbitals (num,occ):  2     2.00 4.00
Orbitals   (num,l):  2        0    1
Real-space Grid (nr,dr,rmax): 1503    0.0066577896   10.0000000000
Spherical Bessel Basis (nsws,lmax,cutoff):   37    2  176.3967570603
Confining potential (l,width,scale):  0    3.0000000000  100.0000000000
Confining potential (l,width,scale):  1    3.0000000000  100.0000000000
  1         -8.3209332552   -7.4828484739   10.1554312602   -2.1270270195
  2        -15.1405599232   -3.0474882742   13.6590820486   -2.5134754209
  3        -15.5174094640   -3.1101891961   13.6243211040   -2.6472956001
  4        -15.7606118231   -3.0805775314   13.6668776248   -2.7100307789
  5        -15.8308896490   -3.0881936416   13.6633910567   -2.7338682066
  6        -15.8678540393   -3.0862312957   13.6673103078   -2.7443897972
  7        -15.8801393942   -3.0873360689   13.6669183555   -2.7485230919
  8        -15.8859601688   -3.0872977830   13.6672813272   -2.7502957173
  9        -15.8880580832   -3.0874730763   13.6672320183   -2.7510066526
 10        -15.8889924584   -3.0874981416   13.6672623218   -2.7513066537
 11        -15.8893459980   -3.0875277929   13.6672548500   -2.7514284384
 12        -15.8894977936   -3.0875355600   13.6672566096   -2.7514793465
 13        -15.8895569380   -3.0875407304   13.6672553199   -2.7515001537
 14        -15.8895817884   -3.0875424467   13.6672552475   -2.7515088021
 15        -15.8895916441   -3.0875433561   13.6672550136   -2.7515123499
 16        -15.8895957327   -3.0875436929   13.6672549605   -2.7515138192
 17        -15.8895973717   -3.0875438525   13.6672549179   -2.7515144231
 18        -15.8895980466   -3.0875439149   13.6672549044   -2.7515146726
 19        -15.8895983189   -3.0875439428   13.6672548968   -2.7515147752
 20        -15.8895984306   -3.0875439540   13.6672548940   -2.7515148175
 21        -15.8895984758   -3.0875439588   13.6672548927   -2.7515148349
Atom SCF converged after  21 iterations to a total energy of    -15.88959848

Atom SCF Calculation for C  : Z (AE atom) =   6 : Z (PS atom) =   4
Config String: 2s2.0 2p2.0
Orbitals (num,occ):  2     2.00 2.00
Orbitals   (num,l):  2        0    1
Real-space Grid (nr,dr,rmax): 1503    0.0066577896   10.0000000000
Spherical Bessel Basis (nsws,lmax,cutoff):   37    2  176.3967570603
Confining potential (l,width,scale):  0    3.0000000000  100.0000000000
Confining potential (l,width,scale):  1    3.0000000000  100.0000000000
  1         -5.4381308884   -1.2721298092    4.5135250045   -1.9381135692
  2         -5.3849331102   -1.3649505469    4.4159511708   -1.9005879768
  3         -5.3930021612   -1.3849430624    4.3947033354   -1.8924421815
  4         -5.4001802281   -1.3891927246    4.3902388137   -1.8907518289
  5         -5.4037205329   -1.3915457087    4.3877695258   -1.8898885469
  6         -5.4055416859   -1.3928069742    4.3864477540   -1.8894519912
  7         -5.4065002767   -1.3934742451    4.3857498837   -1.8892319620
  8         -5.4070074727   -1.3938267709    4.3853820092   -1.8891207968
  9         -5.4072763209   -1.3940130896    4.3851880206   -1.8890645345
 10         -5.4074189962   -1.3941116277    4.3850856600   -1.8890360408
 11         -5.4074947717   -1.3941637823    4.3850316039   -1.8890216105
 12         -5.4075350443   -1.3941914082    4.3850030336   -1.8890143059
 13         -5.4075564617   -1.3942060527    4.3849879208   -1.8890106114
 14         -5.4075678586   -1.3942138217    4.3849799198   -1.8890087446
 15         -5.4075739267   -1.3942179465    4.3849756804   -1.8890078024
 16         -5.4075771595   -1.3942201380    4.3849734321   -1.8890073276
 17         -5.4075788827   -1.3942213034    4.3849722389   -1.8890070886
 18         -5.4075798017   -1.3942219235    4.3849716050   -1.8890069685
 19         -5.4075802921   -1.3942222537    4.3849712680   -1.8890069082
 20         -5.4075805539   -1.3942224296    4.3849710888   -1.8890068781
 21         -5.4075806938   -1.3942225235    4.3849709933   -1.8890068630
 22         -5.4075807686   -1.3942225735    4.3849709424   -1.8890068555
Atom SCF converged after  22 iterations to a total energy of     -5.40758077

Atom SCF Calculation for Fe : Z (AE atom) =  26 : Z (PS atom) =  16
Config String: 3s2.0 3p6.0 3d6.0 4s2.0 4p0.0
Orbitals (num,occ):  5     2.00 6.00 6.00 2.00 0.00
Orbitals   (num,l):  5        0    1    2    0    1
Real-space Grid (nr,dr,rmax): 1503    0.0066577896   10.0000000000
Spherical Bessel Basis (nsws,lmax,cutoff):   37    4  176.3967570603
Confining potential (l,width,scale):  0    3.0000000000  100.0000000000
Confining potential (l,width,scale):  1    3.0000000000  100.0000000000
Confining potential (l,width,scale):  2    3.0000000000  100.0000000000
  1       -111.4005172118  -52.5575611559   72.2164000725   -4.0901868950
  2       -116.6635475262  -20.5601904919   91.7007084249   -2.2962490369
  3       -121.6156136875  -23.2753453277   92.4544705195   -2.7706732816
  4       -123.0066153699  -21.4164712440   94.7136519632   -2.9394413820
  5       -123.8168122141  -22.6370400734   94.1384349420   -3.0798102909
  6       -123.9055073486  -21.7222843370   94.9342614757   -3.0846520419
  7       -124.0956886241  -22.4138747628   94.4617720360   -3.1224050559
  8       -124.0492758687  -21.8887017510   94.8692044073   -3.1096545890
  9       -124.1222324005  -22.2877514631   94.5777385101   -3.1254730624
 10       -124.0894611846  -22.0431086758   94.7620026738   -3.1177312036
 11       -124.1066906466  -22.1417456915   94.6895757605   -3.1215019185
 12       -124.1027421480  -22.1090398813   94.7144439268   -3.1205307857
 13       -124.1039552528  -22.1131641559   94.7116547863   -3.1207645739
 14       -124.1041718268  -22.1127261003   94.7121170471   -3.1207931979
 15       -124.1043563153  -22.1126782042   94.7122440208   -3.1208211382
 16       -124.1044853288  -22.1126702816   94.7123114748   -3.1208409484
 17       -124.1045734258  -22.1126674103   94.7123551926   -3.1208545095
 18       -124.1046334193  -22.1126657134   94.7123845864   -3.1208637603
 19       -124.1046742816  -22.1126645462   94.7124045128   -3.1208700757
 20       -124.1047021281  -22.1126636961   94.7124180731   -3.1208743926
 21       -124.1047211147  -22.1126630559   94.7124273290   -3.1208773473
 22       -124.1047340666  -22.1126625637   94.7124336643   -3.1208793718
 23       -124.1047429056  -22.1126621807   94.7124380116   -3.1208807606
 24       -124.1047489402  -22.1126618812   94.7124410017   -3.1208817142
 25       -124.1047530616  -22.1126616468   94.7124430628   -3.1208823696
 26       -124.1047558771  -22.1126614637   94.7124444863   -3.1208828204
 27       -124.1047578011  -22.1126613212   94.7124454714   -3.1208831306
 28       -124.1047591161  -22.1126612109   94.7124461541   -3.1208833444
 29       -124.1047600152  -22.1126611259   94.7124466281   -3.1208834917
 30       -124.1047606300  -22.1126610607   94.7124469575   -3.1208835933
 31       -124.1047610504  -22.1126610110   94.7124471869   -3.1208836634
 32       -124.1047613380  -22.1126609733   94.7124473467   -3.1208837118
 33       -124.1047615347  -22.1126609447   94.7124474583   -3.1208837453
 34       -124.1047616693  -22.1126609232   94.7124475361   -3.1208837684
 35       -124.1047617614  -22.1126609071   94.7124475906   -3.1208837843
Atom SCF converged after  35 iterations to a total energy of   -124.10476176

Atom SCF Calculation for H  : Z (AE atom) =   1 : Z (PS atom) =   1
Config String: 1s1.0
Orbitals (num,occ):  1     1.00
Orbitals   (num,l):  1        0
Real-space Grid (nr,dr,rmax): 1503    0.0066577896   10.0000000000
Spherical Bessel Basis (nsws,lmax,cutoff):   37    2  176.3967570603
Confining potential (l,width,scale):  0    3.0000000000  100.0000000000
  1         -0.3348525927   -0.2401819449    0.2820953128   -0.2388448411
  2         -0.4038948821   -0.2405504229    0.2866889240   -0.2416217444
  3         -0.4360732773   -0.2390089543    0.2890729861   -0.2443653791
  4         -0.4497314704   -0.2383264046    0.2899315599   -0.2456060208
  5         -0.4551901081   -0.2381357631    0.2901452306   -0.2460489407
  6         -0.4573594294   -0.2381000300    0.2901742710   -0.2461947705
  7         -0.4582326910   -0.2381004501    0.2901659451   -0.2462415077
  8         -0.4585900702   -0.2381055523    0.2901559649   -0.2462564278
  9         -0.4587384807   -0.2381092319    0.2901497571   -0.2462612174
 10         -0.4588008132   -0.2381112609    0.2901465144   -0.2462627659
 11         -0.4588272086   -0.2381122698    0.2901449456   -0.2462632682
 12         -0.4588384507   -0.2381127465    0.2901442163   -0.2462634302
 13         -0.4588432580   -0.2381129655    0.2901438848   -0.2462634814
 14         -0.4588453195   -0.2381130645    0.2901437362   -0.2462634968
 15         -0.4588462053   -0.2381131088    0.2901436700   -0.2462635011
 16         -0.4588465865   -0.2381131284    0.2901436407   -0.2462635020
 17         -0.4588467508   -0.2381131372    0.2901436278   -0.2462635020
 18         -0.4588468216   -0.2381131410    0.2901436222   -0.2462635019
Atom SCF converged after  18 iterations to a total energy of     -0.45884682

Atom SCF Calculation for O  : Z (AE atom) =   8 : Z (PS atom) =   6
Config String: 2s2.0 2p4.0
Orbitals (num,occ):  2     2.00 4.00
Orbitals   (num,l):  2        0    1
Real-space Grid (nr,dr,rmax): 1503    0.0066577896   10.0000000000
Spherical Bessel Basis (nsws,lmax,cutoff):   37    2  176.3967570603
Confining potential (l,width,scale):  0    3.0000000000  100.0000000000
Confining potential (l,width,scale):  1    3.0000000000  100.0000000000
  1         -8.3209332552   -7.4828484739   10.1554312602   -2.1270270195
  2        -15.1405599232   -3.0474882742   13.6590820486   -2.5134754209
  3        -15.5174094640   -3.1101891961   13.6243211040   -2.6472956001
  4        -15.7606118231   -3.0805775314   13.6668776248   -2.7100307789
  5        -15.8308896490   -3.0881936416   13.6633910567   -2.7338682066
  6        -15.8678540393   -3.0862312957   13.6673103078   -2.7443897972
  7        -15.8801393942   -3.0873360689   13.6669183555   -2.7485230919
  8        -15.8859601688   -3.0872977830   13.6672813272   -2.7502957173
  9        -15.8880580832   -3.0874730763   13.6672320183   -2.7510066526
 10        -15.8889924584   -3.0874981416   13.6672623218   -2.7513066537
 11        -15.8893459980   -3.0875277929   13.6672548500   -2.7514284384
 12        -15.8894977936   -3.0875355600   13.6672566096   -2.7514793465
 13        -15.8895569380   -3.0875407304   13.6672553199   -2.7515001537
 14        -15.8895817884   -3.0875424467   13.6672552475   -2.7515088021
 15        -15.8895916441   -3.0875433561   13.6672550136   -2.7515123499
 16        -15.8895957327   -3.0875436929   13.6672549605   -2.7515138192
 17        -15.8895973717   -3.0875438525   13.6672549179   -2.7515144231
 18        -15.8895980466   -3.0875439149   13.6672549044   -2.7515146726
 19        -15.8895983189   -3.0875439428   13.6672548968   -2.7515147752
 20        -15.8895984306   -3.0875439540   13.6672548940   -2.7515148175
 21        -15.8895984758   -3.0875439588   13.6672548927   -2.7515148349
Atom SCF converged after  21 iterations to a total energy of    -15.88959848

BC: Task: SINGLEPOINT
BC: +++++++++++++++ Summary of boundary conditions ++++++++++++++
BC: |       Component       |     Keyword     |   Periodicity   |
BC: |                       |                 |     X  Y  Z [1] |
BC: |-----------------------------------------------------------|
BC: | Ion-ion               | ion_ion_bc [2]  |     P  P  P     |
BC: | Local pseudopotential | pspot_bc [3]    |     P  P  P     |
BC: +++++++++++++++++++++++++++++++++++++++++++++++++++++++++++++
BC: P: Periodic, O: Open.
BC: [1] Not strictly along X, Y, Z but rather along lattice vectors A1, A2, A3.
BC: [2] Also affected by: pbc_correction_cutoff, cutoff_coulomb_type,
BC:     is_smeared_ion_rep, is_implicit_solvent, openbc_ion_ion.
BC: [3] Also affected by: is_smeared_ion_rep, is_implicit_solvent, openbc_pspot.

Determining parallel strategy ...
... using space-filling curve
... NGWF load balancing: max     48;  min     47;  average     47
... Projector load balancing: max    127;  min    116;  average    120
... Hubbard Projector load balancing: max      5;  min      0;  average      3
... done
Calculating Ewald energy ...
              Ewald: real-space energy =         2795.623670
        Ewald: reciprocal-space energy =         1067.411707
         Ewald: (sum_charge)**2 energy =          184.308480
         Ewald: (sum_charge**2) energy =           69.068407
                          Ewald energy =         3609.658490
Basis initialisation ...
... NGWF spheres initialised
... Projector spheres initialised
... Hubbard Projector spheres initialised
... NGWF tight boxes initialised
... Projector tight boxes initialised
... Tight-boxes gathered
... NGWF basis size (local,global):        743597      4474801
... PAW projector initialisation
... done

============================= Charge Augmentation ==============================
                           Aug box size:   39 x  39 x  39
================================================================================
... Hubbard projector initialisation

========================== Sparse matrix information ===========================
                        Overlap matrix filling:  98.80%
                        Density kernel filling: 100.00% (known to be dense)
              NGWF-Proj overlap matrix filling:  51.57%
                    Aug Overlap matrix filling: 100.00%
      NGWF-Hubbard Proj overlap matrix filling: 100.00%
                             VW matrix filling: 100.00%
                    Hamiltonian matrix filling: 100.00%
                  NGWF diagonal matrix filling:   1.63%
                             KS matrix filling: 100.00% 
                           KSKS matrix filling: 100.00% 
================================================================================

Sparse matrix initialisation ...
 done
NGWF initialisation ... done
============ Calculation of NGWF S^-1 using Hotelling algorithm ================ 
     Iteration  |  Spin  |  Frobenius norm and Maximum abs value (of I-S*S_n^-1)
         1           1      0.16625739E+02     0.99299713E+00
         1           2      0.16625739E+02     0.99299713E+00
         2           1      0.16443282E+02     0.98604744E+00
         2           2      0.16443282E+02     0.98604744E+00
         3           1      0.16115165E+02     0.97230522E+00
         3           2      0.16115165E+02     0.97230522E+00
         4           1      0.15571780E+02     0.94543796E+00
         4           2      0.15571780E+02     0.94543796E+00
         5           1      0.14765490E+02     0.89405543E+00
         5           2      0.14765490E+02     0.89405543E+00
         6           1      0.13683709E+02     0.79991412E+00
         6           2      0.13683709E+02     0.79991412E+00
         7           1      0.12351564E+02     0.71430449E+00
         7           2      0.12351564E+02     0.71430449E+00
         8           1      0.10939633E+02     0.67233158E+00
         8           2      0.10939633E+02     0.67233158E+00
         9           1      0.97026019E+01     0.63395009E+00
         9           2      0.97026019E+01     0.63395009E+00
        10           1      0.85521475E+01     0.58115350E+00
        10           2      0.85521475E+01     0.58115350E+00
        11           1      0.70488175E+01     0.52391094E+00
        11           2      0.70488175E+01     0.52391094E+00
        12           1      0.50160189E+01     0.44772334E+00
        12           2      0.50160189E+01     0.44772334E+00
        13           1      0.28341658E+01     0.35711249E+00
        13           2      0.28341658E+01     0.35711249E+00
        14           1      0.13043986E+01     0.25752238E+00
        14           2      0.13043986E+01     0.25752238E+00
        15           1      0.66038065E+00     0.15644186E+00
        15           2      0.66038065E+00     0.15644186E+00
        16           1      0.28400536E+00     0.67316640E-01
        16           2      0.28400536E+00     0.67316640E-01
        17           1      0.56676675E-01     0.13290273E-01
        17           2      0.56676675E-01     0.13290273E-01
        18           1      0.22744322E-02     0.52142133E-03
        18           2      0.22744322E-02     0.52142133E-03
        19           1      0.36785161E-05     0.80337606E-06
        19           2      0.36785161E-05     0.80337606E-06
        20           1      0.97781810E-11     0.19166890E-11
        20           2      0.97781810E-11     0.19166890E-11
        21           1      0.16571467E-13     0.23399421E-14
        21           2      0.16571467E-13     0.23399421E-14
================================================================================
 done

################################################################################
DFT+U information on atom      1 of Hubbard species Fe  
################################################################################
Using the on-atom contravariant metric, the NGWF hydrogenic character
| < \phi | \psi > |**2 matrix of Hubbard site      1 is 
  m_l =   -2          -1           0           1           2         SUM
 -0.00000000 -0.00000000  0.00000000 -0.00000000 -0.00000000 -0.00000000
  0.00000000  0.00000000 -0.00000000  0.00000000 -0.00000001 -0.00000001
  0.00000000  0.00000000 -0.00000001  0.00000000  0.00000000 -0.00000001
  0.00000000  0.00000000 -0.00000001  0.00000000 -0.00000002 -0.00000003
  0.51000315 -0.00000000 -0.00000000  0.00000000  0.00000000  0.51000315
 -0.00000000  0.51008361  0.00000000 -0.00000000  0.00000000  0.51008361
 -0.00000000  0.00000000  0.51205950  0.00000000  0.00000000  0.51205950
  0.00000000 -0.00000000  0.00000000  0.51002169 -0.00000000  0.51002169
  0.00000000  0.00000000  0.00000000 -0.00000000  0.51208054  0.51208054
  0.00000000  0.00000000  0.00000000  0.00000000 -0.00000000 -0.00000000
 -0.00000000  0.00000000 -0.00000000 -0.00000000  0.00000000  0.00000000
 -0.00000000 -0.00000000  0.00000000  0.00000000 -0.00000000  0.00000000
  0.00000000 -0.00000000 -0.00000000  0.00000000 -0.00000001 -0.00000001
Total hydrogenic projection of NGWFs on this atom             2.55424844
################################################################################


################################################################################
DFT+U information on atom      2 of Hubbard species Fe  
################################################################################
Using the on-atom contravariant metric, the NGWF hydrogenic character
| < \phi | \psi > |**2 matrix of Hubbard site      2 is 
  m_l =   -2          -1           0           1           2         SUM
 -0.00000000 -0.00000000  0.00000000 -0.00000000  0.00000000  0.00000000
  0.00000000  0.00000000 -0.00000000  0.00000000 -0.00000001 -0.00000002
  0.00000000  0.00000000 -0.00000002  0.00000000  0.00000000 -0.00000002
  0.00000000  0.00000000 -0.00000000  0.00000000 -0.00000001 -0.00000001
  0.50987525  0.00000000  0.00000000  0.00000000 -0.00000000  0.50987525
  0.00000000  0.50973441 -0.00000000  0.00000000  0.00000000  0.50973441
  0.00000000 -0.00000000  0.51237901 -0.00000000 -0.00000000  0.51237901
  0.00000000  0.00000000 -0.00000000  0.50989788  0.00000000  0.50989788
 -0.00000000  0.00000000 -0.00000000  0.00000000  0.51234882  0.51234882
 -0.00000000  0.00000000 -0.00000000  0.00000000  0.00000000  0.00000000
  0.00000000 -0.00000000  0.00000000  0.00000000 -0.00000000 -0.00000000
  0.00000000  0.00000000 -0.00000002  0.00000000 -0.00000000 -0.00000002
  0.00000000  0.00000000 -0.00000000 -0.00000000 -0.00000000 -0.00000000
Total hydrogenic projection of NGWFs on this atom             2.55423530
################################################################################


################################################################################
Using the subspace contravariant metric, the NGWF hydrogenic character
| < \phi | \psi > |**2 matrix of Hubbard site      1 is 
  m_l =   -2          -1           0           1           2         SUM
  0.51000309 -0.00000000 -0.00000000  0.00000000  0.00000000  0.51000309
 -0.00000000  0.51008355  0.00000000 -0.00000000  0.00000000  0.51008355
 -0.00000000  0.00000000  0.51205937  0.00000000  0.00000000  0.51205937
  0.00000000 -0.00000000  0.00000000  0.51002166 -0.00000000  0.51002166
  0.00000000  0.00000000  0.00000000 -0.00000000  0.51208032  0.51208033
Total hydrogenic projection of NGWFs on this correlated site  2.55424799
################################################################################


################################################################################
Using the subspace contravariant metric, the NGWF hydrogenic character
| < \phi | \psi > |**2 matrix of Hubbard site      2 is 
  m_l =   -2          -1           0           1           2         SUM
  0.50987525  0.00000000  0.00000000  0.00000000 -0.00000000  0.50987525
  0.00000000  0.50973439 -0.00000000  0.00000000  0.00000000  0.50973439
  0.00000000 -0.00000000  0.51237864 -0.00000000 -0.00000000  0.51237864
  0.00000000  0.00000000 -0.00000000  0.50989787  0.00000000  0.50989787
 -0.00000000  0.00000000 -0.00000000  0.00000000  0.51234866  0.51234866
Total hydrogenic projection of NGWFs on this correlated site  2.55423481
################################################################################


################################################################################
Using the subspace contravariant metric, the NGWF hydrogenic character
| < \phi | \psi > |**2 matrix of Hubbard site      3 is 
  m_l =   -2          -1           0           1           2         SUM
  0.50993026  0.00000000  0.00000000  0.00000000 -0.00000000  0.50993026
  0.00000000  0.50992560  0.00000000  0.00000000 -0.00000000  0.50992560
  0.00000000  0.00000000  0.51216181  0.00000000  0.00000000  0.51216181
  0.00000000  0.00000000  0.00000000  0.50986075  0.00000000  0.50986075
 -0.00000000 -0.00000000  0.00000000  0.00000000  0.51207004  0.51207004
Total hydrogenic projection of NGWFs on this correlated site  2.55394846
################################################################################

Calculating core density ...
================================= Core Density =================================
               Core den box size:   39 x  39 x  39
================================================================================
 ... done
Density renormalisation, spin  2 ...
Target Charge:   160.000000000000 ; Input Charge:   162.001830832149
Density kernel initialisation
 
======= Optimisation of K by Palser-Manolopoulos canonical purification ======== 
         Iteration  |  Band structure energy |    c_n   
               1         -88.63754030916979    0.5661595
               2         -92.39790958334946    0.5614565
               3         -96.99303350337470    0.5545177
               4        -102.47530423155317    0.5456354
               5        -108.99621038126078    0.5351018
               6        -116.43790963731534    0.5266538
               7        -123.87786506673260    0.5337669
               8        -129.63780011630541    0.5814015
               9        -132.52323077092677    0.6756226
              10        -133.40383631285761    0.7199774
              11        -133.74279486949945    0.7154789
              12        -133.97176584240418    0.7151738
              13        -134.11464138163200    0.6848838
              14        -134.22151434068118    0.6338549
              15        -134.30918193935378    0.5958653
              16        -134.36472994992795    0.5783489
              17        -134.38972807713685    0.5546719
              18        -134.39895918875888    0.5201791
              19        -134.40146034487421    0.5021563
              20        -134.40170943118972    0.5000220
              21        -134.40171212131929    0.4999960
              22        -134.40171212165191    0.4999960
Termination criterion satisfied: band energy change below threshold.
Final occupancy bounds: [    0.00000000000000:    1.00000000000000]
Closest occupancy to 0.5:     1.00000000000000
================================================================================
 
======= Optimisation of K by Palser-Manolopoulos canonical purification ======== 
         Iteration  |  Band structure energy |    c_n   
               1         -87.64863438364979    0.5556354
               2         -91.61152693215374    0.5508829
               3         -96.45610198409923    0.5439613
               4        -102.21620019850425    0.5355766
               5        -109.03265663704516    0.5266881
               6        -116.68176489155132    0.5232891
               7        -124.00683593935437    0.5440671
               8        -129.21243672203912    0.6165087
               9        -131.49156426907928    0.7102540
              10        -132.17487577508297    0.7330238
              11        -132.52099044672764    0.7315363
              12        -132.76210735961558    0.7214721
              13        -132.93473921893835    0.7127059
              14        -133.05893099150251    0.7421747
              15        -133.12407168066989    0.7726473
              16        -133.15536311545799    0.7584035
              17        -133.17853166286676    0.7285774
              18        -133.19850156172569    0.7059341
              19        -133.21401967462236    0.6989346
              20        -133.22436531741883    0.6914634
              21        -133.23106257537540    0.6560591
              22        -133.23628713162071    0.6005025
              23        -133.24046350516258    0.5356526
              24        -133.24319292469320    0.4844246
              25        -133.24422001927348    0.4859500
              26        -133.24449654379339    0.4984357
              27        -133.24454617238871    0.4999831
              28        -133.24454755541535    0.4999998
              29        -133.24454755646025    0.4999998
Termination criterion satisfied: band energy change below threshold.
Final occupancy bounds: [    0.00000000000000:    1.00000000000000]
Closest occupancy to 0.5:     1.00000000000000
================================================================================

Writing density kernel to file "Fe3_O_piv_6_H2O_3_LowSpin_NGWFSP.dkn" ... done

>>> Optimising kernel for current NGWFs:
   Initial electron number for spin 1:     163.00000000
   Initial electron number for spin 2:     160.00000000
     Final electron number for spin 1:     163.00000000
     Final electron number for spin 2:     160.00000000

=================== Penalty functional idempotency correction ==================
 RMS occupancy error at iteration   1:  0.000000 (step -0.5000 Ne1=    163.0000)
                                                               Ne2=    160.0000
            Final RMS occupancy error   :  0.000000 (Ne1=    163.0000)
                                                     Ne2=    160.0000
            Final occupancy bounds spin 1: [ -0.000,  1.000]
            Final occupancy bounds spin 2: [ -0.000,  1.000]
================================================================================

................................................................................
<<<<<<<<<<<<<< LNV (Original version) density kernel optimisation >>>>>>>>>>>>>>
~~~~~~~~~~~~~~~~~~~~~~~~~~~~~~~~~~~~~~~~~~~~~~~~~~~~~~~~~~~~~~~~~~~~~~~~~~~~~~~~
   iter  |      energy (Eh)       | rms gradient |  commutator  |   dE (Eh)

################################################################################
DFT+U information on atom      1 of Hubbard species Fe  
################################################################################
Occupancy matrix of Hubbard site      1 and spin      1 is 
  m_l =   -2          -1           0           1           2
  0.65767365 -0.05756614  0.02672719  0.26979032 -0.09315069
 -0.05756754  0.54857116 -0.19988398  0.03993514  0.16238837
  0.02672539 -0.19979937  0.87336136 -0.03376588  0.10086791
  0.26979300  0.03992954 -0.03377418  0.76181727  0.08762013
 -0.09311642  0.16232858  0.10087033  0.08758516  0.89029485
################################################################################
Occupancy matrix of Hubbard site      1 and spin      2 is 
  m_l =   -2          -1           0           1           2
  0.52245687 -0.08869362  0.16314264  0.11353591 -0.02743740
 -0.08869894  0.51597107 -0.17951881 -0.02598793  0.10362153
  0.16308494 -0.17944221  0.72710389  0.10966410 -0.00183255
  0.11354073 -0.02598701  0.10970792  0.54565107  0.07525297
 -0.02743763  0.10358592 -0.00183332  0.07521557  0.63886329
################################################################################
Total occupancy of Hubbard site      1 is         6.68176448 e
Local magnetic moment of Hubbard site      1 is   0.78167209 mu_B
DFT+U energy of Hubbard site      1 is            0.10842460 Ha
################################################################################


################################################################################
DFT+U information on atom      2 of Hubbard species Fe  
################################################################################
Occupancy matrix of Hubbard site      2 and spin      1 is 
  m_l =   -2          -1           0           1           2
  0.98563152  0.00233108 -0.02175466  0.00426039  0.01333444
  0.00232898  0.94607684  0.12779611 -0.00437827  0.07030593
 -0.02174558  0.12777816  0.44068905  0.09832546  0.00872065
  0.00425985 -0.00437831  0.09834060  0.96341670 -0.05329248
  0.01333601  0.07027839  0.00871667 -0.05327814  0.39464809
################################################################################
Occupancy matrix of Hubbard site      2 and spin      2 is 
  m_l =   -2          -1           0           1           2
  0.49215065 -0.01713140 -0.01061901 -0.04201365  0.01286620
 -0.01713129  0.78856663  0.06749432 -0.14151539  0.06446456
 -0.01061468  0.06748250  0.41687604  0.04679609  0.00649740
 -0.04201105 -0.14152790  0.04680138  0.84147448 -0.05824050
  0.01286802  0.06444322  0.00649558 -0.05822034  0.39441214
################################################################################
Total occupancy of Hubbard site      2 is         6.66394215 e
Local magnetic moment of Hubbard site      2 is   0.79698225 mu_B
DFT+U energy of Hubbard site      2 is            0.10843386 Ha
################################################################################

      ideal mu1:      -0.660411188634
      ideal mu2:      -0.661361376498
             Q0:        -833.196486412593
             G0:      -7.649840183959
   RMS gradient:       0.013821486167

################################################################################
DFT+U information on atom      1 of Hubbard species Fe  
################################################################################
Occupancy matrix of Hubbard site      1 and spin      1 is 
  m_l =   -2          -1           0           1           2
  0.70473614 -0.04503900  0.02666432  0.23546911 -0.08392055
 -0.04503928  0.59880365 -0.18117667  0.03012196  0.14666738
  0.02666208 -0.18109977  0.88887999 -0.03044862  0.09045308
  0.23547093  0.03011723 -0.03045599  0.79257777  0.07861677
 -0.08388965  0.14661368  0.09045526  0.07858529  0.90183892
################################################################################
Occupancy matrix of Hubbard site      1 and spin      2 is 
  m_l =   -2          -1           0           1           2
  0.56896423 -0.07502274  0.16082451  0.08753448 -0.01945420
 -0.07502648  0.56478344 -0.16360419 -0.02946479  0.09788042
  0.16076727 -0.16353422  0.74444148  0.10938962 -0.00714130
  0.08753895 -0.02946360  0.10943326  0.58644523  0.07730108
 -0.01945745  0.09784690 -0.00714068  0.07726274  0.67543389
################################################################################
Total occupancy of Hubbard site      1 is         7.02690473 e
Local magnetic moment of Hubbard site      1 is   0.74676820 mu_B
DFT+U energy of Hubbard site      1 is            0.10893627 Ha
################################################################################


################################################################################
DFT+U information on atom      2 of Hubbard species Fe  
################################################################################
Occupancy matrix of Hubbard site      2 and spin      1 is 
  m_l =   -2          -1           0           1           2
  0.98839188  0.00229752 -0.02046701  0.00390847  0.01209027
  0.00229585  0.95598077  0.10914329 -0.00522509  0.06339351
 -0.02045962  0.10912746  0.52013848  0.08357808  0.00788230
  0.00390819 -0.00522532  0.08359112  0.97130754 -0.04847994
  0.01209176  0.06336906  0.00787759 -0.04846673  0.45933714
################################################################################
Occupancy matrix of Hubbard site      2 and spin      2 is 
  m_l =   -2          -1           0           1           2
  0.51559830 -0.02104076 -0.01119990 -0.04423488  0.01297137
 -0.02103988  0.81848137  0.05813251 -0.12461080  0.05962361
 -0.01119652  0.05812162  0.49314892  0.03997034  0.00612696
 -0.04423197 -0.12462178  0.03997519  0.86475041 -0.05285457
  0.01297361  0.05960443  0.00612415 -0.05283595  0.45220125
################################################################################
Total occupancy of Hubbard site      2 is         7.03933608 e
Local magnetic moment of Hubbard site      2 is   0.75097556 mu_B
DFT+U energy of Hubbard site      2 is            0.10887164 Ha
################################################################################

     Trial step:       0.500000000000
             Q1:        -833.645064107783
 Quadratic coef:       3.376342396789
 Linear coef   :      -3.824920091979
           Qmin:        -834.279760262717
Quadratic minimum step length (  0.283214766341) accepted
    Initial Ne1:     163.00000000
    Initial Ne2:     160.00000000
      Final Ne1:     163.00000000
      Final Ne2:     160.00000000

=================== Penalty functional idempotency correction ==================
 RMS occupancy error at iteration   1:  0.003348 (step -0.4900 Ne1=    163.0000)
                                                               Ne2=    160.0000
 RMS occupancy error at iteration   2:  0.000020 (step -0.5000 Ne1=    163.0000)
                                                               Ne2=    160.0000
            Final RMS occupancy error   :  0.000000 (Ne1=    163.0000)
                                                     Ne2=    160.0000
            Final occupancy bounds spin 1: [  0.000,  1.000]
            Final occupancy bounds spin 2: [  0.000,  1.000]
================================================================================

    1        -8.331964864126E+02     1.3821E-02     8.5646E-03

################################################################################
DFT+U information on atom      1 of Hubbard species Fe  
################################################################################
Occupancy matrix of Hubbard site      1 and spin      1 is 
  m_l =   -2          -1           0           1           2
  0.68453845 -0.05045162  0.02673075  0.25028902 -0.08790865
 -0.05045237  0.57718932 -0.18930789  0.03434723  0.15345554
  0.02672870 -0.18922763  0.88226950 -0.03181788  0.09493010
  0.25029119  0.03434211 -0.03182562  0.77930219  0.08250742
 -0.08787629  0.15339922  0.09493239  0.08247443  0.89687605
################################################################################
Occupancy matrix of Hubbard site      1 and spin      2 is 
  m_l =   -2          -1           0           1           2
  0.54888645 -0.08096754  0.16194410  0.09870570 -0.02285816
 -0.08097197  0.54372256 -0.17052150 -0.02803033  0.10029137
  0.16188662 -0.17044864  0.73697809  0.10960486 -0.00493585
  0.09871032 -0.02802925  0.10964860  0.56876238  0.07635551
 -0.02286013  0.10025697 -0.00493584  0.07631760  0.65938790
################################################################################
Total occupancy of Hubbard site      1 is         6.87791290 e
Local magnetic moment of Hubbard site      1 is   0.76243813 mu_B
DFT+U energy of Hubbard site      1 is            0.10908037 Ha
################################################################################


################################################################################
DFT+U information on atom      2 of Hubbard species Fe  
################################################################################
Occupancy matrix of Hubbard site      2 and spin      1 is 
  m_l =   -2          -1           0           1           2
  0.98721237  0.00232641 -0.02109042  0.00406440  0.01262837
  0.00232455  0.95182479  0.11717558 -0.00494571  0.06638501
 -0.02108232  0.11715884  0.48594442  0.08992360  0.00824935
  0.00406402 -0.00494587  0.08993755  0.96804061 -0.05057411
  0.01262990  0.06635922  0.00824495 -0.05056040  0.43146362
################################################################################
Occupancy matrix of Hubbard site      2 and spin      2 is 
  m_l =   -2          -1           0           1           2
  0.50527491 -0.01936891 -0.01095288 -0.04331361  0.01292988
 -0.01936836  0.80554705  0.06212021 -0.13209877  0.06171733
 -0.01094909  0.06210892  0.46026923  0.04287540  0.00629287
 -0.04331083 -0.13211043  0.04288042  0.85474941 -0.05520280
  0.01293194  0.06169721  0.00629049 -0.05518350  0.42728246
################################################################################
Total occupancy of Hubbard site      2 is         6.87760886 e
Local magnetic moment of Hubbard site      2 is   0.77136276 mu_B
DFT+U energy of Hubbard site      2 is            0.10909168 Ha
################################################################################

      ideal mu1:      -0.718432004846
      ideal mu2:      -0.720485008319
             Q0:        -834.296883261735
             G0:      -0.416871794883
   RMS gradient:       0.003208431885

################################################################################
DFT+U information on atom      1 of Hubbard species Fe  
################################################################################
Occupancy matrix of Hubbard site      1 and spin      1 is 
  m_l =   -2          -1           0           1           2
  0.68637099 -0.04985552  0.02691122  0.25027536 -0.08826886
 -0.04985610  0.57665091 -0.19057261  0.03387963  0.15376864
  0.02690944 -0.19049168  0.88282681 -0.03121015  0.09478511
  0.25027699  0.03387436 -0.03121742  0.77883057  0.08280890
 -0.08823617  0.15371244  0.09478736  0.08277567  0.89658227
################################################################################
Occupancy matrix of Hubbard site      1 and spin      2 is 
  m_l =   -2          -1           0           1           2
  0.54697803 -0.08033895  0.16397630  0.10031345 -0.02263620
 -0.08034301  0.54046147 -0.17337068 -0.02691037  0.10419743
  0.16391838 -0.17329641  0.73501055  0.11141058 -0.00438230
  0.10031776 -0.02690968  0.11145530  0.56784417  0.08149878
 -0.02263837  0.10416179 -0.00438164  0.08145858  0.66457785
################################################################################
Total occupancy of Hubbard site      1 is         6.87613361 e
Local magnetic moment of Hubbard site      1 is   0.76638950 mu_B
DFT+U energy of Hubbard site      1 is            0.10839305 Ha
################################################################################


################################################################################
DFT+U information on atom      2 of Hubbard species Fe  
################################################################################
Occupancy matrix of Hubbard site      2 and spin      1 is 
  m_l =   -2          -1           0           1           2
  0.98717784  0.00265711 -0.02245178  0.00425546  0.01242103
  0.00265538  0.95252046  0.11685513 -0.00557322  0.06673996
 -0.02244398  0.11683829  0.48630814  0.08938860  0.00812514
  0.00425517 -0.00557348  0.08940259  0.96887181 -0.05110898
  0.01242259  0.06671411  0.00812062 -0.05109522  0.43023626
################################################################################
Occupancy matrix of Hubbard site      2 and spin      2 is 
  m_l =   -2          -1           0           1           2
  0.50160118 -0.02126611 -0.01316245 -0.04518770  0.01346286
 -0.02126521  0.81001863  0.06450222 -0.12896603  0.06307176
 -0.01315878  0.06449046  0.45704323  0.04466525  0.00632829
 -0.04518469 -0.12897740  0.04467078  0.85881036 -0.05580484
  0.01346521  0.06305129  0.00632571 -0.05578544  0.42088438
################################################################################
Total occupancy of Hubbard site      2 is         6.87347231 e
Local magnetic moment of Hubbard site      2 is   0.77675675 mu_B
DFT+U energy of Hubbard site      2 is            0.10844813 Ha
################################################################################

     Trial step:       0.376307564594
             Q1:        -834.377668576321
 Quadratic coef:       0.076086695294
 Linear coef   :      -0.156872009880
           Qmin:        -834.377741115361
Quadratic minimum step length (  0.387926718089) accepted
    Initial Ne1:     162.99999949
    Initial Ne2:     159.99999948
      Final Ne1:     163.00000000
      Final Ne2:     160.00000000

=================== Penalty functional idempotency correction ==================
 RMS occupancy error at iteration   1:  0.000846 (step -0.4973 Ne1=    163.0000)
                                                               Ne2=    160.0000
 RMS occupancy error at iteration   2:  0.000002 (step -0.5000 Ne1=    163.0000)
                                                               Ne2=    160.0000
            Final RMS occupancy error   :  0.000000 (Ne1=    163.0000)
                                                     Ne2=    160.0000
            Final occupancy bounds spin 1: [  0.000,  1.000]
            Final occupancy bounds spin 2: [  0.000,  1.000]
================================================================================

    2        -8.342968832617E+02     3.2084E-03     1.9883E-03    -1.1004E+00

################################################################################
DFT+U information on atom      1 of Hubbard species Fe  
################################################################################
Occupancy matrix of Hubbard site      1 and spin      1 is 
  m_l =   -2          -1           0           1           2
  0.68642930 -0.04983556  0.02691644  0.25027329 -0.08827957
 -0.04983613  0.57663474 -0.19061105  0.03386417  0.15377859
  0.02691468 -0.19053009  0.88284346 -0.03119201  0.09478084
  0.25027490  0.03385889 -0.03119926  0.77881713  0.08281804
 -0.08824687  0.15372240  0.09478309  0.08278481  0.89657318
################################################################################
Occupancy matrix of Hubbard site      1 and spin      2 is 
  m_l =   -2          -1           0           1           2
  0.54692003 -0.08031839  0.16403862  0.10036155 -0.02262913
 -0.08032243  0.54036140 -0.17345772 -0.02687654  0.10431842
  0.16398069 -0.17338341  0.73494907  0.11146597 -0.00436502
  0.10036585 -0.02687586  0.11151072  0.56781592  0.08165768
 -0.02263131  0.10428273 -0.00436435  0.08161741  0.66473882
################################################################################
Total occupancy of Hubbard site      1 is         6.87608305 e
Local magnetic moment of Hubbard site      1 is   0.76651256 mu_B
DFT+U energy of Hubbard site      1 is            0.10837166 Ha
################################################################################


################################################################################
DFT+U information on atom      2 of Hubbard species Fe  
################################################################################
Occupancy matrix of Hubbard site      2 and spin      1 is 
  m_l =   -2          -1           0           1           2
  0.98717698  0.00266731 -0.02249367  0.00426135  0.01241441
  0.00266559  0.95254151  0.11684445 -0.00559187  0.06675078
 -0.02248588  0.11682759  0.48632321  0.08937169  0.00812152
  0.00426106 -0.00559213  0.08938568  0.96889674 -0.05112546
  0.01241596  0.06672492  0.00811700 -0.05111170  0.43019818
################################################################################
Occupancy matrix of Hubbard site      2 and spin      2 is 
  m_l =   -2          -1           0           1           2
  0.50148739 -0.02132462 -0.01323061 -0.04524545  0.01347896
 -0.02132371  0.81015690  0.06457552 -0.12886791  0.06311349
 -0.01322694  0.06456375  0.45694657  0.04472048  0.00632941
 -0.04524243 -0.12887927  0.04472603  0.85893540 -0.05582330
  0.01348132  0.06309300  0.00632682 -0.05580389  0.42068706
################################################################################
Total occupancy of Hubbard site      2 is         6.87334993 e
Local magnetic moment of Hubbard site      2 is   0.77692332 mu_B
DFT+U energy of Hubbard site      2 is            0.10842805 Ha
################################################################################

      ideal mu1:      -0.739898226169
      ideal mu2:      -0.741580624647
             Q0:        -834.378246332361
             G0:      -0.147952416653
   RMS gradient:       0.001918582627

################################################################################
DFT+U information on atom      1 of Hubbard species Fe  
################################################################################
Occupancy matrix of Hubbard site      1 and spin      1 is 
  m_l =   -2          -1           0           1           2
  0.68897627 -0.05075761  0.02597065  0.24987189 -0.08786817
 -0.05075814  0.57835438 -0.19049427  0.03497750  0.15249801
  0.02596957 -0.19041315  0.88423462 -0.02983745  0.09374698
  0.24987285  0.03497188 -0.02984396  0.77875651  0.08234014
 -0.08783530  0.15244263  0.09374922  0.08230690  0.89734104
################################################################################
Occupancy matrix of Hubbard site      1 and spin      2 is 
  m_l =   -2          -1           0           1           2
  0.54517336 -0.08112521  0.16501825  0.10251457 -0.02173286
 -0.08112893  0.53878634 -0.17546959 -0.02372427  0.10687542
  0.16496025 -0.17539407  0.73371859  0.11355768 -0.00450647
  0.10251865 -0.02372425  0.11360335  0.56805676  0.08620621
 -0.02173545  0.10683914 -0.00450502  0.08616379  0.67116562
################################################################################
Total occupancy of Hubbard site      1 is         6.88456349 e
Local magnetic moment of Hubbard site      1 is   0.77076214 mu_B
DFT+U energy of Hubbard site      1 is            0.10773704 Ha
################################################################################


################################################################################
DFT+U information on atom      2 of Hubbard species Fe  
################################################################################
Occupancy matrix of Hubbard site      2 and spin      1 is 
  m_l =   -2          -1           0           1           2
[...]
*    C      84      0.00000558   0.00001008   0.00000228 *
*    H      85      0.00000558   0.00001008   0.00000228 *
*    H      86      0.00000558   0.00001008   0.00000228 *
*    H      87      0.00000558   0.00001008   0.00000228 *
*    C      88      0.00000558   0.00001008   0.00000228 *
*    H      89      0.00000558   0.00001008   0.00000228 *
*    H      90      0.00000558   0.00001008   0.00000228 *
*    H      91      0.00000558   0.00001008   0.00000228 *
*    C      92      0.00000558   0.00001008   0.00000228 *
*    H      93      0.00000558   0.00001008   0.00000228 *
*    H      94      0.00000558   0.00001008   0.00000228 *
*    H      95      0.00000558   0.00001008   0.00000228 *
*    C      96      0.00000558   0.00001008   0.00000228 *
*    C      97      0.00000558   0.00001008   0.00000228 *
*    C      98      0.00000558   0.00001008   0.00000228 *
*    H      99      0.00000558   0.00001008   0.00000228 *
*    H     100      0.00000558   0.00001008   0.00000228 *
*    H     101      0.00000558   0.00001008   0.00000228 *
*    C     102      0.00000558   0.00001008   0.00000228 *
*    H     103      0.00000558   0.00001008   0.00000228 *
*    H     104      0.00000558   0.00001008   0.00000228 *
*    H     105      0.00000558   0.00001008   0.00000228 *
*    C     106      0.00000558   0.00001008   0.00000228 *
*    H     107      0.00000558   0.00001008   0.00000228 *
*    H     108      0.00000558   0.00001008   0.00000228 *
*    H     109      0.00000558   0.00001008   0.00000228 *
*                                                        *
**********************************************************
TOTAL:              0.00060803   0.00109832   0.00024857

********************* Unconstrained **********************
************************* Forces *************************
*                                                        *
* Element  Atom         Cartesian components (Eh/a)      *
* ------------------------------------------------------ *
*                       x            y            z      *
*                                                        *
*    Fe      1     -0.00257589   0.00210819  -0.00154952 *
*    Fe      2     -0.00017974  -0.00033619   0.00384950 *
*    Fe      3      0.00254086  -0.00165955  -0.00231722 *
*    O       4      0.00141028   0.00163027   0.00011989 *
*    O       5     -0.00766665  -0.00700802   0.00150271 *
*    H       6      0.00770934  -0.00246508  -0.00555659 *
*    H       7      0.00356611   0.00592898   0.00698660 *
*    O       8     -0.00885885  -0.00627057  -0.00295281 *
*    H       9      0.00946762  -0.00271247  -0.00214731 *
*    H      10      0.00028253   0.01018702  -0.00079087 *
*    O      11     -0.00822676  -0.00624484  -0.00408480 *
*    H      12      0.00229717   0.00005201   0.00985170 *
*    H      13      0.00168132   0.00954373  -0.00300383 *
*    O      14      0.00517531  -0.00448652   0.01608591 *
*    O      15     -0.00583168   0.00330047  -0.01581682 *
*    O      16      0.00851286  -0.00516540   0.01311838 *
*    O      17     -0.00831481   0.00621688  -0.01224545 *
*    O      18      0.01042410  -0.00451280  -0.01308878 *
*    O      19     -0.01089339   0.00187357   0.01335872 *
*    O      20      0.00736887   0.00061513  -0.01471240 *
*    O      21     -0.00822488   0.00034774   0.01488095 *
*    O      22     -0.01005734   0.01359997  -0.00251771 *
*    O      23      0.00969686  -0.01523270   0.00130026 *
*    O      24     -0.00936649   0.01274624   0.00462362 *
*    O      25      0.01058950  -0.01273632  -0.00443443 *
*    C      26      0.00722512   0.00192772  -0.00225067 *
*    C      27      0.00146490   0.00057763  -0.00002474 *
*    C      28      0.00018581  -0.00008096  -0.00038541 *
*    H      29     -0.00249731   0.00170723  -0.00315965 *
*    H      30     -0.00009891  -0.00419707  -0.00073594 *
*    H      31      0.00414923   0.00125964  -0.00102961 *
*    C      32     -0.00013409   0.00057113  -0.00000013 *
*    H      33     -0.00267061   0.00208395  -0.00270163 *
*    H      34      0.00406690   0.00173922  -0.00089427 *
*    H      35     -0.00088402   0.00146370   0.00396883 *
*    C      36      0.00001458  -0.00013320  -0.00000174 *
*    H      37      0.00023612  -0.00426664  -0.00004261 *
*    H      38     -0.00055574   0.00101014   0.00417010 *
*    H      39      0.00415380   0.00134993  -0.00083507 *
*    C      40     -0.00056735  -0.00632041  -0.00364605 *
*    C      41      0.00013451  -0.00146514  -0.00089098 *
*    C      42     -0.00058929  -0.00033374   0.00019140 *
*    H      43     -0.00339933   0.00221054  -0.00145054 *
*    H      44     -0.00063871  -0.00052125   0.00423557 *
*    H      45     -0.00042922  -0.00408147  -0.00171555 *
*    C      46      0.00068373  -0.00010894   0.00013151 *
*    H      47      0.00400346   0.00143491  -0.00072506 *
*    H      48     -0.00016032  -0.00400893  -0.00178140 *
*    H      49     -0.00009116  -0.00081397   0.00430216 *
*    C      50      0.00006200  -0.00000345  -0.00039640 *
*    H      51      0.00380527   0.00167670  -0.00135960 *
*    H      52     -0.00315439   0.00232184  -0.00190393 *
*    H      53     -0.00026607  -0.00392014  -0.00189568 *
*    C      54     -0.00005966   0.00800308  -0.00175268 *
*    C      55      0.00029049   0.00148630  -0.00013398 *
*    C      56      0.00001732  -0.00016363  -0.00035354 *
*    H      57      0.00029492   0.00428692  -0.00086941 *
*    H      58     -0.00199692  -0.00166260  -0.00338433 *
*    H      59      0.00407803  -0.00137677  -0.00039320 *
*    C      60     -0.00039294  -0.00002070  -0.00018153 *
*    H      61      0.00001643   0.00434953  -0.00086390 *
*    H      62     -0.00223964  -0.00043296   0.00380123 *
*    H      63     -0.00250430  -0.00163512  -0.00300192 *
*    C      64      0.00029861   0.00028283   0.00014506 *
*    H      65      0.00033747   0.00442379  -0.00044533 *
*    H      66      0.00414541  -0.00136529   0.00023555 *
*    H      67     -0.00175908  -0.00044201   0.00399685 *
*    C      68     -0.00600704  -0.00211864  -0.00295198 *
*    C      69     -0.00165615  -0.00027531  -0.00069855 *
*    C      70      0.00019862  -0.00052423   0.00013301 *
*    H      71     -0.00372534  -0.00135922  -0.00206478 *
*    H      72      0.00054070  -0.00271748   0.00323556 *
*    H      73      0.00310385  -0.00096221  -0.00277934 *
*    C      74     -0.00007694   0.00052406  -0.00019029 *
*    H      75     -0.00383554  -0.00102939  -0.00207973 *
*    H      76      0.00312822  -0.00038649  -0.00296893 *
*    H      77     -0.00023226   0.00423111   0.00070378 *
*    C      78     -0.00005246   0.00024050   0.00011347 *
*    H      79     -0.00380887  -0.00106841  -0.00184765 *
*    H      80     -0.00052267   0.00412337   0.00128672 *
*    H      81      0.00002591  -0.00237477   0.00365099 *
*    C      82      0.00323679   0.00402580   0.00583725 *
*    C      83      0.00061878   0.00048822   0.00131306 *
*    C      84      0.00054179   0.00047541  -0.00000319 *
*    H      85      0.00308428  -0.00034742  -0.00294639 *
*    H      86      0.00192268   0.00229417   0.00322837 *
*    H      87     -0.00296690   0.00269878  -0.00174744 *
*    C      88     -0.00032400  -0.00010476   0.00045879 *
*    H      89     -0.00178509  -0.00360102   0.00145878 *
*    H      90     -0.00328761   0.00256127  -0.00127108 *
*    H      91      0.00164623   0.00194723   0.00355358 *
*    C      92      0.00050341  -0.00014103   0.00047387 *
*    H      93      0.00183324   0.00205477   0.00335939 *
*    H      94      0.00321883  -0.00075432  -0.00269889 *
*    H      95     -0.00113122  -0.00386260   0.00142476 *
*    C      96     -0.00449454  -0.00515032   0.00301266 *
*    C      97     -0.00099979  -0.00111339   0.00073221 *
*    C      98     -0.00035199  -0.00029329  -0.00014761 *
*    H      99     -0.00275849  -0.00251843   0.00223441 *
*    H     100     -0.00047100  -0.00113861  -0.00406063 *
*    H     101     -0.00181106   0.00398556   0.00023803 *
*    C     102      0.00001603   0.00012925   0.00082761 *
*    H     103     -0.00252765  -0.00254508   0.00257972 *
*    H     104     -0.00137993   0.00406641   0.00076138 *
*    H     105      0.00397489  -0.00023270   0.00166615 *
*    C     106      0.00012026  -0.00034670   0.00011934 *
*    H     107     -0.00245079  -0.00272277   0.00227760 *
*    H     108      0.00399694  -0.00073260   0.00147076 *
*    H     109     -0.00015543  -0.00155682  -0.00412631 *
*                                                        *
**********************************************************
* TOTAL:           -0.00000000  -0.00000000  -0.00000000 *
**********************************************************
 
 
***********************************************************
********** Summary of Forces (values in Eh/a) *************
*                                                         *
* ---------------------- Minimum ------------------------ *
* Atom:        36, |F|min =    0.00013400                 *
* Components:     Fx|min       Fy|min       Fz|min        *
*               0.00001458  -0.00013320  -0.00000174      *
*                                                         *
* ---------------------- Maximum ------------------------ *
* Atom:        23, |F|max =    0.01810401                 *
* Components:     Fx|max       Fy|max       Fz|max        *
*               0.00969686  -0.01523270   0.00130026      *
*                                                         *
* ---------------- Root Mean Square Force --------------- *
*                  |F|rms =    0.00734591                 *
* Components:     Fx|rms       Fy|rms       Fz|rms        *
*               0.00407392   0.00401272   0.00461124      *
***********************************************************
 

------------------------------ TIMING INFORMATION ------------------------------
AVERAGE TIME:   19072.583s on      6 proc(s)                                    
TOTAL TIME:     19072.583s on      6 proc(s)                                    
==================== AVERAGE TIMINGS FROM ALL PROCS (CUMULATIVE) =====================
|| TAG                                         #calls     cpu time   %total  Gflops ||
|| onetep.F90 main loop imbalance             :     1        0.00s   0.000%  ------ ||
|| hubbard_species_proj                       :     1        0.00s   0.000%  ------ ||
|| hash_table_free                            :    37        0.00s   0.000%  ------ ||
|| hubbard_ngwf_select                        :     1        0.00s   0.000%  ------ ||
|| hubbard_projector_character                :     1        0.00s   0.000%  ------ ||
|| linalg_invert_sym_matrix                   :     4        0.00s   0.000%  ------ || (3 procs only)
|| hubbard_tensorial_correction               :     2        0.00s   0.000%  ------ ||
|| hubbard_ngwf_on_grid                       :     1        0.00s   0.000%  ------ ||
|| ewald_calculate_forces_realspace           :     1        0.00s   0.000%  ------ ||
|| sparse_blacstospam3_real_fast_imbal        :    24        0.00s   0.000%  ------ ||
|| sparse_spam3toblacs_real_fast_imbal        :     6        0.00s   0.000%  ------ ||
|| sw_bessel_init_cpu                         :     1        0.01s   0.000%  ------ || (1 procs only)
|| density_fftbox_interp_mult_imbal           : 19008        0.00s   0.000%  ------ ||
|| sparse_spam3toblacs_real_fast_B2           :    36        0.00s   0.000%  ------ ||
|| sparse_spam3toblacs_real_fast_B1           :    36        0.01s   0.000%  ------ ||
|| sparse_set_to_garbage                      :   806        0.01s   0.000%  ------ ||
|| sparse_spam3toblacs_real_fast              :     6        0.02s   0.000%  ------ ||
|| ewald_calculate_energy                     :     1        0.02s   0.000%  ------ ||
|| sparse_init                                :     1        0.02s   0.000%  ------ ||
|| hubbard_projection_mtx                     :    39        0.03s   0.000%  ------ ||
|| linalg_dgemv                               :   127        0.03s   0.000%  ------ ||
|| ewald_calculate_forces_recipspace          :     1        0.04s   0.000%  ------ ||
|| ewald_calculate_forces                     :     1        0.04s   0.000%  ------ ||
|| paw_dij_hartree                            :   215        0.04s   0.000%  ------ ||
|| dense_eigensolve                           :     2        0.04s   0.000%  ------ ||
|| paw_tcore_density                          :     1        0.05s   0.000%  ------ ||
|| sw_init                                    :   403        0.07s   0.000%  ------ ||
|| sparse_blacstospam3_real_fast              :    24        0.07s   0.000%  ------ ||
|| hubbard_projector_ham                      :    96        0.21s   0.001%  ------ ||
|| augmentation_density_forces                :     1        0.21s   0.001%  ------ ||
|| basis_extract_function_from_box            :  3584        0.22s   0.001%  ------ ||
|| palser_mano_kernel_optimise_spam3_embed    :     2        0.29s   0.002%  ------ ||
|| hubbard_ham_matrix                         :    97        0.32s   0.002%  ------ ||
|| sparse_embed_array_hotelling_invert        :    37        0.53s   0.003%  ------ ||
|| paw_tcore_hartree_on_grid                  :     1        0.58s   0.003%  ------ ||
|| onetep.F90 final imbalance                 :     1        0.61s   0.003%  ------ ||
|| hubbard_energy_total                       :   194        0.73s   0.004%  ------ ||
|| hubbard_calculate_forces                   :     1        0.84s   0.004%  ------ ||
|| pseudo_make_structure_factor               :     1        0.87s   0.005%  ------ ||
|| paw_sphere_density_on_grid                 :     1        1.27s   0.007%  ------ ||
|| kernel_purify                              :   304        1.56s   0.008%  ------ ||
|| ngwfs_initialise_from_radial               :     4        1.70s   0.009%  ------ ||
|| paw_dataset_init                           :     4        1.74s   0.009%  ------ ||
|| sparse_trace                               :  8465        1.95s   0.010%  ------ ||
|| lnv_gradient_norm                          :    95        2.12s   0.011%  ------ ||
|| paw_tcore_hartree_calc_forces              :     1        2.46s   0.013%  ------ ||
|| kernel_fix                                 :    95        2.96s   0.016%  ------ ||
|| nonsc_forces_ngwfs_calc                    :     1        4.21s   0.022%  ------ ||
|| paw_species_calc_proj_prec_mat             :     1        4.79s   0.025%  ------ ||
|| integrals_grad_spam3                       :     4        5.05s   0.026%  ------ ||
|| paw_nlcc_calculate_forces                  :     1        6.11s   0.032%  ------ ||
|| ngwf_gradient_coeffs                       :    19        6.73s   0.035%  ------ ||
|| energy_and_force_init_cell                 :     1        7.27s   0.038%  ------ ||
|| function_ops_brappd_ketppd_spam3           :   152       13.42s   0.070%  ------ ||
|| hubbard_projector_update                   :     1       14.44s   0.076%  ------ ||
|| sparse_product                             : 14280       17.36s   0.091%  ------ ||
|| projectors_func_grad_ovlp_box_spam3        :     6       24.53s   0.129%  ------ ||
|| aug_nl_calculate_forces                    :     1       24.97s   0.131%  ------ ||
|| eigenstates_calculate                      :     1       25.95s   0.136%  ------ ||
|| restart_kernel_write                       :    20       33.74s   0.177%  ------ ||
|| restart_ngwfs_tightbox_output              :    18       38.80s   0.203%  ------ ||
|| augmentation_screen_dij_spam3              :   204       40.18s   0.211%  ------ ||
|| basis_copy_function_to_box                 : 35002       50.63s   0.265%  ------ ||
|| aug_nonlocal_mat_spam3_embed_array         :   195       54.02s   0.283%  ------ ||
|| paw_dij_xc                                 :   215       57.04s   0.299%  ------ ||
|| fourier_apply_box_pair                     :  5411       71.73s   0.376%  86.077 ||
|| fourier_filter_cell                        :   248       86.88s   0.456%  24.936 ||
|| cell_grid_extract_box_real                 : 20154       88.25s   0.463%  ------ ||
|| density_init_guess_real                    :     2       89.92s   0.471%  ------ ||
|| forces_calculate                           :     1       92.17s   0.483%  ------ ||
|| aug_density_on_grid_spam3                  :   198       96.01s   0.503%  ------ ||
|| integrals_kinetic_spam3                    :    74       96.80s   0.508%  ------ ||
|| integrals_locpot_mat_els_batch             :   630      124.32s   0.652%  ------ ||
|| hartree_on_grid_single                     :   197      129.53s   0.679%  ------ ||
|| basis_dot_function_with_box                : 4.709M     134.13s   0.703%  ------ ||
|| fourier_interpolate_cell                   :   396      152.17s   0.798%  22.733 ||
|| density_batch_row_sums                     :  1188      174.07s   0.913%  ------ ||
|| cell_grid_deposit_box_real                 : 28220      181.54s   0.952%  ------ ||
|| projectors_init_fftbox_recip               :   503      222.66s   1.167%  ------ ||
|| basis_add_function_to_box                  : 7.281M     241.82s   1.268%  ------ ||
|| properties_calculate                       :     1      310.73s   1.629%  ------ ||
|| hamiltonian_energy_components              :     4      326.62s   1.713%  ------ ||
|| density_fftbox_deposit_to_cell             : 19008      401.26s   2.104%  ------ ||
|| projectors_func_ovlp_box_spam3             :   154      477.05s   2.501%  ------ ||
|| fourier_apply_cell_forward                 :  1774      485.85s   2.547%  28.701 ||
|| fourier_filter                             :  6832      560.63s   2.939%  ------ ||
|| fourier_apply_cell_backward                :  1774      590.92s   3.098%  23.598 ||
|| xc_energy_potential                        :   197     1168.33s   6.126%  ------ ||
|| fourier_interpolate                        :  6832     1390.27s   7.289%  ------ ||
|| potential_apply_to_ngwf_batch              :   630     2259.98s  11.849%  ------ ||
|| integrals_locpot_dbl_grid                  :   210     2384.53s  12.502%  ------ ||
|| fourier_interpolate_product                : 18678     3103.10s  16.270%  ------ ||
|| density_fftbox_interpolate_multiply        : 19008     3350.86s  17.569%  ------ ||
|| projectors_gradient_batch                  :   228     3391.36s  17.781%  ------ ||
|| fourier_apply_box                          : 134.5k    3500.14s  18.352% 118.260 ||
|| density_batch_interp_deposit               :  1188     4201.31s  22.028%  ------ ||
|| projectors_grad_precond_batch              :   114     4306.01s  22.577%  ------ ||
|| density_on_dbl_grid                        :   396     4655.01s  24.407%  ------ ||
|| hamiltonian_lhxc_calculate                 :   191     6238.19s  32.708%  ------ ||
|| lnv_denskernel_optimise_cg                 :    19     7917.15s  41.511%  ------ ||
|| ngwf_gradient_build_batch                  :   114     8354.78s  43.805%  ------ ||
|| ngwf_gradient_batch                        :   114     8775.97s  46.014%  ------ ||
|| ngwf_gradient_lnv                          :    19     8936.10s  46.853%  ------ ||
|| ngwf_cg_optimise                           :     1    18495.97s  96.977%  ------ ||
|| energy_and_forces                          :     1    19064.10s  99.956%  ------ ||
|| total_time                                 :     1    19072.58s 100.000%  ------ ||
======================================================================================
Overhead of generating timer report: 
- 0 ms averaging over threads,
- 0 ms ensuring consistency across MPI ranks,
- 1 ms printing in order.

Job completed: 28-06-2025 17:28 (+0100)

onetep_launcher: ONETEP seems to have finished correctly (zero exit code).
                 Brought to you by PID 149774 on nid002626.
