==================================================================================
It's Sat 28 Jun 2025 12:11:31 PM BST.
*** Starting onetep_launcher (node nid002866, PIDs 2182 2184 2193 2198 2202 2203)...
    - ONETEP arguments: Fe_EtOH_3_LowSpin.dat
    - Current directory: /mnt/lustre/a2fs-work3/work/e89/e89/phsmea/onetep_ali/Fe_EtOH_3/LS/nsp
    - Launcher executable directory: /mnt/lustre/a2fs-work3/work/e89/e89/phsmea/onetep_ali
    - (-e) ONETEP executable specified through command-line: /work/e89/e89/phsmea/onetep.archer2_2024_cray_2
      ... trying /work/e89/e89/phsmea/onetep.archer2_2024_cray_2
          -> looks OK
*** Setting up environment...
    - (-s) Process stack size: unlimited
    - (-t) OMP_NUM_THREADS: 8
    - (-o) OMP_STACKSIZE: 64M
    - (-c) Maximum core file size: 2048000
    - (-d) decfort_dump_flag: n
    - (-m) I_MPI_OFA_TRANSLATION_CACHE: 0
    - (-m) I_MPI_DAPL_TRANSLATION_CACHE: 0
    - (-m) I_MPI_DAPL_UD_TRANSLATION_CACHE: 0
*** Starting ONETEP...
    - /work/e89/e89/phsmea/onetep.archer2_2024_cray_2 Fe_EtOH_3_LowSpin.dat
=================================================================================
_________________________________________________________________________________
 +---------------------------------------------------------------+
 |                                                               |
 |        ####### #     # ####### ####### ####### ######         |
 |        #     # ##    # #          #    #       #     #        |
 |        #     # # #   # #          #    #       #     #        |
 |        #     # #  #  # #####      #    #####   ######         |
 |        #     # #   # # #          #    #       #              |
 |        #     # #    ## #          #    #       #              |
 |        ####### #     # #######    #    ####### #              |
 |                                                               |
 |        Linear-Scaling Ab Initio Total Energy Program          |
 |                                                               |
 |          Release for academic collaborators of ODG            |
 |                                             Version 7.3.0     |
 | Remote: git@github.com:Miesaz/onetep_mea.git                  |
 | Local branch: master                                          |
 | Commit ID: 4af45e89288c8df5499704252eec3e032ee3d0c8           |
 | Date: Tue Aug 6 11:28:44 2024 +0100                           |
 | Locally modified files:                                       |
 |   src/hubbard_build_mod.F90                                   |
 |   src/services_mod.F90                                        |
 |                                                               |
 +---------------------------------------------------------------+
 |                                                               |
 |  Authors:                                                     |
 |  Jacek Dziedzic, Peter D. Haynes, Nicholas D. M. Hine,        |
 |  Arash A. Mostofi, Mike C. Payne and Chris-Kriton Skylaris    |
 |                                                               |
 |  Contributors:                                                |
 |  J. Aarons, L. Andrinopoulos, P. W. Avraam, R. A. Bell,       |
 |  A. Bhandari, G. A. Bramley, R. J. Charlton, S. J. Clark,     |
 |  R. J. Clements, G. C. Constantinescu, F. Corsetti,           |
 |  N. Corsini, O. Dieguez, S. M. M. Dubois, K. K. B. Duff,      |
 |  J. M. Escartin, M. Escobar Azor, A. Greco,                   |
 |  H. Helal, Q. O. Hill, L. P. Lee, J.-H. Li,                   |
 |  T. Li, E. B. Linscott, G. Moynihan, D. D. O`Regan,           |
 |  O. K. Okan, E. Parkinson, M. J. S. Phipps,                   |
 |  C. J. Pickard, J. C. A. Prentice, M. I. J. Probert,          |
 |  L. E. Ratcliff, M. Robinson, A. Ruiz Serrano,                |
 |  M. dos Santos Dias, J. S. Spencer, E. W. Tait,               |
 |  G. Teobaldi, D. Turban, V. Vitale, K. A. Wilkinson,          |
 |  C. Weber, J. C. Womack, Chengcheng Xiao, N. Yeung,           |
 |  and T. J. Zuehlsdorff.                                       |
 |                                                               |
 |                                   Copyright (c) 2004-2025     |
 |                                                               |
 |  Please cite:                                                 |
 |  "The ONETEP linear-scaling density functional theory program"|
 |   J. Chem. Phys. 152(17) 174111 (2020)                        |
 |                                                               |
 |          in all publications arising from your use of ONETEP. |
 |                                                               |
 +---------------------------------------------------------------+
 |                                                               |
 |   ONETEP is based on developments described in the following  |
 |   publications:                                               |
 |                                                               |
 |  "Nonorthogonal generalized Wannier function pseudopotential  |
 |   plane-wave method".                                         |
 |   C.-K. Skylaris, A. A. Mostofi, P. D. Haynes, O. Dieguez,    |
 |   M. C. Payne.                                                |
 |   Phys. Rev. B 66 035119 (2002).                              |
 |                                                               |
 |  "Preconditioned iterative minimization for linear-scaling    |
 |   electronic structure calculations".                         |
 |   A. A. Mostofi, P. D. Haynes, C.-K. Skylaris, M. C. Payne.   |
 |   J. Chem. Phys. 119(17), pp.8842-8848 (2003).                |
 |                                                               |
 |  "Total-energy calculations on a real space grid with         |
 |   localized functions and a plane-wave basis".                |
 |   A. A. Mostofi, C.-K. Skylaris, P. D. Haynes, M. C. Payne.   |
 |   Comput. Phys. Commun. 147, pp.788-802 (2002).               |
 |                                                               |
 |  "Accurate kinetic energy evaluation in electronic structure  |
 |   calculations with localized functions on real space grids"  |
 |   C.-K. Skylaris, A. A. Mostofi, P. D. Haynes, C. J. Pickard, |
 |   M. C. Payne.                                                |
 |   Comput. Phys. Commun. 140, pp.315-322 (2001).               |
 |                                                               |
 |  "Accurate ionic forces and geometry optimization in linear-  |
 |   scaling density-functional theory with local orbitals"      |
 |   N. D. M. Hine, M. Robinson, P. D. Haynes, C.-K. Skylaris,   |
 |   M. C. Payne, and A. A. Mostofi.                             |
 |   Phys. Rev. B 83 195102 (2011).                              |
 |                                                               |
 +---------------------------------------------------------------+

Job started: 28-06-2025 12:11 (+0100)
 
Reading parameters from file "Fe_EtOH_3_LowSpin.dat" ...... done

If your calculation crashes here, before "Checking processes and threads..."
is displayed, then your stack size is insufficient.
If so, use "ulimit -s unlimited" at runtime.
You can disable this check with "check_stack_size F".

Checking processes and threads...
   Determining the default number of threads...
      No default threads set at compilation time: defaulting to 1.
      OpenMP library call suggests 8 threads.
      Hybrid MPI-OpenMP compilation detected.
      Number of MPI processes > 1.
      OMP_NUM_THREADS environment variable present and
      its value matches the one obtained from the OpenMP library call.
      Using this value as default.
      Default threads: 8
      Default applies to threads_max and threads_num_fftboxes.
      Settings in the input file override this default.
   ... done

   Running with 6 MPI processes.
   There are 6 MPI processes running on the same node as the root process.
   Each MPI process is using: 
               1 threads for simulation cell FFTs.
               1 threads for threaded FFT box operations.
               8 threads for loops over batched FFT box operations.
               8 threads in other parallel regions.
   MPI Interface: S1 (use mpi_f08) (-DMPI -DUSE_MPI_F08).
   MPI_ASYNC_PROTECTS_NONBLOCKING: Yes. MPI_SUBARRAYS_SUPPORTED: Yes.
   FFTW Interface: OMP-capable and MODERN. (-DUSE_MODERN_FFTW specified).
   GPU Interface: None.
   GPU FFT Backend: None.
... done

Basic input checks...... done

Reading geometry and species blocks from file "Fe_EtOH_3_LowSpin.dat" ...
  <species_atomic_set> block not found: NGWF initialisation set to SOLVE
    
  Number of PPD points along a3 set to 1.  This is 
  the default value, it may have been provided also in the input file.
... done


--------------------------------------------------------------------------------
---------------------------------- INPUT FILE ----------------------------------
--------------------------------------------------------------------------------

charge : 3                                                                      
cutoff_energy : 800 eV                                                          
do_properties : T                                                               
edft : F                                                                        
fine_grid_scale : 4                                                             
forces_output_detail : VERBOSE                                                  
output_detail : VERBOSE                                                         
paw : T                                                                         
pseudo_path : ../../../                                                         
spin : 1                                                                        
task : SINGLEPOINT                                                              
write_denskern : T                                                              
write_forces : T                                                                
write_tightbox_ngwfs : T                                                        
xc_functional : pbe                                                             
%BLOCK HUBBARD                                                                  
Fe 2 4.0 0 -10 0 0                                                              
%ENDBLOCK HUBBARD                                                               
%BLOCK LATTICE_CART                                                             
ang                                                                             
27.84119898       0.00000000       0.00000000                                   
0.00000000      27.95738238       0.00000000                                    
0.00000000       0.00000000      26.56600724                                    
%ENDBLOCK LATTICE_CART                                                          
%BLOCK POSITIONS_ABS                                                            
ang                                                                             
Fe    12.945725    13.008170    12.366393                                       
O    12.016493    14.602567    11.784556                                        
O    12.265510    12.331331    14.071551                                        
O    14.548123    12.065909    11.780545                                        
H    11.256164    14.501932    11.183947                                        
C    15.981783    12.205111    12.132576                                        
H    12.274563    12.898587    14.861918                                        
C    12.202572    16.058940    12.042923                                        
H    14.482036    11.468034    11.014263                                        
C    11.725453    11.003930    14.440015                                        
H    13.263265    16.187932    12.291435                                        
H    11.628468    16.261185    12.968459                                        
C    11.738304    16.908310    10.922970                                        
H    12.334266    16.765395    10.000000                                        
H    11.854586    17.957382    11.214479                                        
H    10.686539    16.744411    10.642585                                        
H    11.189566    10.633982    13.554300                                        
C    10.904431    11.023367    15.671873                                        
H    12.608650    10.343210    14.566201                                        
H    10.000000    11.653232    15.560438                                        
H    11.428134    11.402131    16.566007                                        
H    10.584391    10.000000    15.889363                                        
H    16.004830    12.349473    13.220805                                        
H    16.326072    13.154600    11.677085                                        
C    16.806215    11.071025    11.646291                                        
H    16.450258    10.103501    12.039806                                        
H    17.841199    11.252551    11.957586                                        
H    16.848393    10.956338    10.547116                                        
%ENDBLOCK POSITIONS_ABS                                                         
%BLOCK SPECIES                                                                  
C C 6 -1 10.0                                                                   
Fe Fe 26 -1 10.0                                                                
H H 1 -1 10.0                                                                   
O O 8 -1 10.0                                                                   
%ENDBLOCK SPECIES                                                               
%BLOCK SPECIES_POT                                                              
C C.PBE-paw.abinit                                                              
Fe Fe.PBE-paw.abinit                                                            
H H.PBE-paw.abinit                                                              
O O.PBE-paw.abinit                                                              
%ENDBLOCK SPECIES_POT                                                           

--------------------------------------------------------------------------------
-------------------------------- END INPUT FILE --------------------------------
--------------------------------------------------------------------------------


 
 ESDF WARNING(1): "charge" (esdf_physical) has no units. Assume "e".
<<<<<<<<<<<<<<<<<<<<<<<<<<<<<<<<< Full system >>>>>>>>>>>>>>>>>>>>>>>>>>>>>>>>>>
<<<<<<<<<<<<<<<<<<<<<<<<<<< PAW Dataset information >>>>>>>>>>>>>>>>>>>>>>>>>>>
File: Fe.PBE-paw.abinit; rc = 2.12 bohr; shape type =  2; rshape = 1.81 bohr;
  Atomic number: 26;  ionic charge: 16.000000
    Partial Wave 1: l = 0
    Partial Wave 2: l = 0
    Partial Wave 3: l = 1
    Partial Wave 4: l = 1
    Partial Wave 5: l = 2
    Partial Wave 6: l = 2
  Core charge supplied for Nonlinear Core Corrections
File: O.PBE-paw.abinit; rc = 1.41 bohr; shape type =  2; rshape = 1.20 bohr;
  Atomic number:  8;  ionic charge:  6.000000
    Partial Wave 1: l = 0
    Partial Wave 2: l = 0
    Partial Wave 3: l = 1
    Partial Wave 4: l = 1
  Core charge supplied for Nonlinear Core Corrections
File: H.PBE-paw.abinit; rc = 0.90 bohr; shape type =  2; rshape = 0.80 bohr;
  Atomic number:  1;  ionic charge:  1.000000
    Partial Wave 1: l = 0
    Partial Wave 2: l = 0
    Partial Wave 3: l = 1
File: C.PBE-paw.abinit; rc = 1.51 bohr; shape type =  2; rshape = 1.30 bohr;
  Atomic number:  6;  ionic charge:  4.000000
    Partial Wave 1: l = 0
    Partial Wave 2: l = 0
    Partial Wave 3: l = 1
    Partial Wave 4: l = 1
  Core charge supplied for Nonlinear Core Corrections
<<<<<<<<<<<<<<<<<<<<<<<<<<<<<<<<<<<<<<< >>>>>>>>>>>>>>>>>>>>>>>>>>>>>>>>>>>>>>>

-------------------------- Atom counting information ---------------------------
Symbol    Natoms    Nngwfs    Nprojs
  Fe         1        13        18
  O          3        12        24
  H         18        18        90
  C          6        24        48
.......   ......    ......    ......
Totals:     28        67       180
--------------------------------------------------------------------------------

=============================== PSINC grid sizes ===============================
                      Simulation cell:  105 x 105 x  99
                              FFT-box:  105 x 105 x  99
                                  PPD:    5 x   5 x   1
Grid space d1=  0.501068965054a0 (KE cutoff=  30.25582Eh = 823.30288eV)
Grid space d2=  0.503159963219a0 (KE cutoff=  30.00488Eh = 816.47424eV)
Grid space d3=  0.507095739121a0 (KE cutoff=  29.54092Eh = 803.84945eV)
================================================================================

********************* Fourier parallelisation information **********************
       Coarse grid (whole simulation cell) dimensions:    105   105    99
          Real-space ('12') slabs/proc (min max mean):     16    17    16
         Recip-space ('23') slabs/proc (min max mean):      8     9     8
********************************************************************************

********************* Fourier parallelisation information **********************
       Double grid (whole simulation cell) dimensions:    210   210   198
          Real-space ('12') slabs/proc (min max mean):     33    33    33
         Recip-space ('23') slabs/proc (min max mean):     17    18    17
********************************************************************************

********************* Fourier parallelisation information **********************
         Fine grid (whole simulation cell) dimensions:    420   420   396
          Real-space ('12') slabs/proc (min max mean):     66    66    66
         Recip-space ('23') slabs/proc (min max mean):     35    36    35
********************************************************************************

Atom SCF Calculation for C  : Z (AE atom) =   6 : Z (PS atom) =   4
Config String: 2s2.0 2p2.0
Orbitals (num,occ):  2     2.00 2.00
Orbitals   (num,l):  2        0    1
Real-space Grid (nr,dr,rmax): 1503    0.0066577896   10.0000000000
Spherical Bessel Basis (nsws,lmax,cutoff):   37    2  176.3967570603
Confining potential (l,width,scale):  0    3.0000000000  100.0000000000
Confining potential (l,width,scale):  1    3.0000000000  100.0000000000
  1         -5.4381308884   -1.2721298092    4.5135250045   -1.9381135692
  2         -5.3849331102   -1.3649505469    4.4159511708   -1.9005879768
  3         -5.3930021612   -1.3849430624    4.3947033354   -1.8924421815
  4         -5.4001802281   -1.3891927246    4.3902388137   -1.8907518289
  5         -5.4037205329   -1.3915457087    4.3877695258   -1.8898885469
  6         -5.4055416859   -1.3928069742    4.3864477540   -1.8894519912
  7         -5.4065002767   -1.3934742451    4.3857498837   -1.8892319620
  8         -5.4070074727   -1.3938267709    4.3853820092   -1.8891207968
  9         -5.4072763209   -1.3940130896    4.3851880206   -1.8890645345
 10         -5.4074189962   -1.3941116277    4.3850856600   -1.8890360408
 11         -5.4074947717   -1.3941637823    4.3850316039   -1.8890216105
 12         -5.4075350443   -1.3941914082    4.3850030336   -1.8890143059
 13         -5.4075564617   -1.3942060527    4.3849879208   -1.8890106114
 14         -5.4075678586   -1.3942138217    4.3849799198   -1.8890087446
 15         -5.4075739267   -1.3942179465    4.3849756804   -1.8890078024
 16         -5.4075771595   -1.3942201380    4.3849734321   -1.8890073276
 17         -5.4075788827   -1.3942213034    4.3849722389   -1.8890070886
 18         -5.4075798017   -1.3942219235    4.3849716050   -1.8890069685
 19         -5.4075802921   -1.3942222537    4.3849712680   -1.8890069082
 20         -5.4075805539   -1.3942224296    4.3849710888   -1.8890068781
 21         -5.4075806938   -1.3942225235    4.3849709933   -1.8890068630
 22         -5.4075807686   -1.3942225735    4.3849709424   -1.8890068555
Atom SCF converged after  22 iterations to a total energy of     -5.40758077

Atom SCF Calculation for Fe : Z (AE atom) =  26 : Z (PS atom) =  16
Config String: 3s2.0 3p6.0 3d6.0 4s2.0 4p0.0
Orbitals (num,occ):  5     2.00 6.00 6.00 2.00 0.00
Orbitals   (num,l):  5        0    1    2    0    1
Real-space Grid (nr,dr,rmax): 1503    0.0066577896   10.0000000000
Spherical Bessel Basis (nsws,lmax,cutoff):   37    4  176.3967570603
Confining potential (l,width,scale):  0    3.0000000000  100.0000000000
Confining potential (l,width,scale):  1    3.0000000000  100.0000000000
Confining potential (l,width,scale):  2    3.0000000000  100.0000000000
  1       -111.4005172118  -52.5575611559   72.2164000725   -4.0901868950
  2       -116.6635475262  -20.5601904919   91.7007084249   -2.2962490369
  3       -121.6156136875  -23.2753453277   92.4544705195   -2.7706732816
  4       -123.0066153699  -21.4164712440   94.7136519632   -2.9394413820
  5       -123.8168122141  -22.6370400734   94.1384349420   -3.0798102909
  6       -123.9055073486  -21.7222843370   94.9342614757   -3.0846520419
  7       -124.0956886241  -22.4138747628   94.4617720360   -3.1224050559
  8       -124.0492758687  -21.8887017510   94.8692044073   -3.1096545890
  9       -124.1222324005  -22.2877514631   94.5777385101   -3.1254730624
 10       -124.0894611846  -22.0431086758   94.7620026738   -3.1177312036
 11       -124.1066906466  -22.1417456915   94.6895757605   -3.1215019185
 12       -124.1027421480  -22.1090398813   94.7144439268   -3.1205307857
 13       -124.1039552528  -22.1131641559   94.7116547863   -3.1207645739
 14       -124.1041718268  -22.1127261003   94.7121170471   -3.1207931979
 15       -124.1043563153  -22.1126782042   94.7122440208   -3.1208211382
 16       -124.1044853288  -22.1126702816   94.7123114748   -3.1208409484
 17       -124.1045734258  -22.1126674103   94.7123551926   -3.1208545095
 18       -124.1046334193  -22.1126657134   94.7123845864   -3.1208637603
 19       -124.1046742816  -22.1126645462   94.7124045128   -3.1208700757
 20       -124.1047021281  -22.1126636961   94.7124180731   -3.1208743926
 21       -124.1047211147  -22.1126630559   94.7124273290   -3.1208773473
 22       -124.1047340666  -22.1126625637   94.7124336643   -3.1208793718
 23       -124.1047429056  -22.1126621807   94.7124380116   -3.1208807606
 24       -124.1047489402  -22.1126618812   94.7124410017   -3.1208817142
 25       -124.1047530616  -22.1126616468   94.7124430628   -3.1208823696
 26       -124.1047558771  -22.1126614637   94.7124444863   -3.1208828204
 27       -124.1047578011  -22.1126613212   94.7124454714   -3.1208831306
 28       -124.1047591161  -22.1126612109   94.7124461541   -3.1208833444
 29       -124.1047600152  -22.1126611259   94.7124466281   -3.1208834917
 30       -124.1047606300  -22.1126610607   94.7124469575   -3.1208835933
 31       -124.1047610504  -22.1126610110   94.7124471869   -3.1208836634
 32       -124.1047613380  -22.1126609733   94.7124473467   -3.1208837118
 33       -124.1047615347  -22.1126609447   94.7124474583   -3.1208837453
 34       -124.1047616693  -22.1126609232   94.7124475361   -3.1208837684
 35       -124.1047617614  -22.1126609071   94.7124475906   -3.1208837843
Atom SCF converged after  35 iterations to a total energy of   -124.10476176

Atom SCF Calculation for H  : Z (AE atom) =   1 : Z (PS atom) =   1
Config String: 1s1.0
Orbitals (num,occ):  1     1.00
Orbitals   (num,l):  1        0
Real-space Grid (nr,dr,rmax): 1503    0.0066577896   10.0000000000
Spherical Bessel Basis (nsws,lmax,cutoff):   37    2  176.3967570603
Confining potential (l,width,scale):  0    3.0000000000  100.0000000000
  1         -0.3348525927   -0.2401819449    0.2820953128   -0.2388448411
  2         -0.4038948821   -0.2405504229    0.2866889240   -0.2416217444
  3         -0.4360732773   -0.2390089543    0.2890729861   -0.2443653791
  4         -0.4497314704   -0.2383264046    0.2899315599   -0.2456060208
  5         -0.4551901081   -0.2381357631    0.2901452306   -0.2460489407
  6         -0.4573594294   -0.2381000300    0.2901742710   -0.2461947705
  7         -0.4582326910   -0.2381004501    0.2901659451   -0.2462415077
  8         -0.4585900702   -0.2381055523    0.2901559649   -0.2462564278
  9         -0.4587384807   -0.2381092319    0.2901497571   -0.2462612174
 10         -0.4588008132   -0.2381112609    0.2901465144   -0.2462627659
 11         -0.4588272086   -0.2381122698    0.2901449456   -0.2462632682
 12         -0.4588384507   -0.2381127465    0.2901442163   -0.2462634302
 13         -0.4588432580   -0.2381129655    0.2901438848   -0.2462634814
 14         -0.4588453195   -0.2381130645    0.2901437362   -0.2462634968
 15         -0.4588462053   -0.2381131088    0.2901436700   -0.2462635011
 16         -0.4588465865   -0.2381131284    0.2901436407   -0.2462635020
 17         -0.4588467508   -0.2381131372    0.2901436278   -0.2462635020
 18         -0.4588468216   -0.2381131410    0.2901436222   -0.2462635019
Atom SCF converged after  18 iterations to a total energy of     -0.45884682

Atom SCF Calculation for O  : Z (AE atom) =   8 : Z (PS atom) =   6
Config String: 2s2.0 2p4.0
Orbitals (num,occ):  2     2.00 4.00
Orbitals   (num,l):  2        0    1
Real-space Grid (nr,dr,rmax): 1503    0.0066577896   10.0000000000
Spherical Bessel Basis (nsws,lmax,cutoff):   37    2  176.3967570603
Confining potential (l,width,scale):  0    3.0000000000  100.0000000000
Confining potential (l,width,scale):  1    3.0000000000  100.0000000000
  1         -8.3209332552   -7.4828484739   10.1554312602   -2.1270270195
  2        -15.1405599232   -3.0474882742   13.6590820486   -2.5134754209
  3        -15.5174094640   -3.1101891961   13.6243211040   -2.6472956001
  4        -15.7606118231   -3.0805775314   13.6668776248   -2.7100307789
  5        -15.8308896490   -3.0881936416   13.6633910567   -2.7338682066
  6        -15.8678540393   -3.0862312957   13.6673103078   -2.7443897972
  7        -15.8801393942   -3.0873360689   13.6669183555   -2.7485230919
  8        -15.8859601688   -3.0872977830   13.6672813272   -2.7502957173
  9        -15.8880580832   -3.0874730763   13.6672320183   -2.7510066526
 10        -15.8889924584   -3.0874981416   13.6672623218   -2.7513066537
 11        -15.8893459980   -3.0875277929   13.6672548500   -2.7514284384
 12        -15.8894977936   -3.0875355600   13.6672566096   -2.7514793465
 13        -15.8895569380   -3.0875407304   13.6672553199   -2.7515001537
 14        -15.8895817884   -3.0875424467   13.6672552475   -2.7515088021
 15        -15.8895916441   -3.0875433561   13.6672550136   -2.7515123499
 16        -15.8895957327   -3.0875436929   13.6672549605   -2.7515138192
 17        -15.8895973717   -3.0875438525   13.6672549179   -2.7515144231
 18        -15.8895980466   -3.0875439149   13.6672549044   -2.7515146726
 19        -15.8895983189   -3.0875439428   13.6672548968   -2.7515147752
 20        -15.8895984306   -3.0875439540   13.6672548940   -2.7515148175
 21        -15.8895984758   -3.0875439588   13.6672548927   -2.7515148349
Atom SCF converged after  21 iterations to a total energy of    -15.88959848

Atom SCF Calculation for C  : Z (AE atom) =   6 : Z (PS atom) =   4
Config String: 2s2.0 2p2.0
Orbitals (num,occ):  2     2.00 2.00
Orbitals   (num,l):  2        0    1
Real-space Grid (nr,dr,rmax): 1503    0.0066577896   10.0000000000
Spherical Bessel Basis (nsws,lmax,cutoff):   37    2  176.3967570603
Confining potential (l,width,scale):  0    3.0000000000  100.0000000000
Confining potential (l,width,scale):  1    3.0000000000  100.0000000000
  1         -5.4381308884   -1.2721298092    4.5135250045   -1.9381135692
  2         -5.3849331102   -1.3649505469    4.4159511708   -1.9005879768
  3         -5.3930021612   -1.3849430624    4.3947033354   -1.8924421815
  4         -5.4001802281   -1.3891927246    4.3902388137   -1.8907518289
  5         -5.4037205329   -1.3915457087    4.3877695258   -1.8898885469
  6         -5.4055416859   -1.3928069742    4.3864477540   -1.8894519912
  7         -5.4065002767   -1.3934742451    4.3857498837   -1.8892319620
  8         -5.4070074727   -1.3938267709    4.3853820092   -1.8891207968
  9         -5.4072763209   -1.3940130896    4.3851880206   -1.8890645345
 10         -5.4074189962   -1.3941116277    4.3850856600   -1.8890360408
 11         -5.4074947717   -1.3941637823    4.3850316039   -1.8890216105
 12         -5.4075350443   -1.3941914082    4.3850030336   -1.8890143059
 13         -5.4075564617   -1.3942060527    4.3849879208   -1.8890106114
 14         -5.4075678586   -1.3942138217    4.3849799198   -1.8890087446
 15         -5.4075739267   -1.3942179465    4.3849756804   -1.8890078024
 16         -5.4075771595   -1.3942201380    4.3849734321   -1.8890073276
 17         -5.4075788827   -1.3942213034    4.3849722389   -1.8890070886
 18         -5.4075798017   -1.3942219235    4.3849716050   -1.8890069685
 19         -5.4075802921   -1.3942222537    4.3849712680   -1.8890069082
 20         -5.4075805539   -1.3942224296    4.3849710888   -1.8890068781
 21         -5.4075806938   -1.3942225235    4.3849709933   -1.8890068630
 22         -5.4075807686   -1.3942225735    4.3849709424   -1.8890068555
Atom SCF converged after  22 iterations to a total energy of     -5.40758077

Atom SCF Calculation for Fe : Z (AE atom) =  26 : Z (PS atom) =  16
Config String: 3s2.0 3p6.0 3d6.0 4s2.0 4p0.0
Orbitals (num,occ):  5     2.00 6.00 6.00 2.00 0.00
Orbitals   (num,l):  5        0    1    2    0    1
Real-space Grid (nr,dr,rmax): 1503    0.0066577896   10.0000000000
Spherical Bessel Basis (nsws,lmax,cutoff):   37    4  176.3967570603
Confining potential (l,width,scale):  0    3.0000000000  100.0000000000
Confining potential (l,width,scale):  1    3.0000000000  100.0000000000
Confining potential (l,width,scale):  2    3.0000000000  100.0000000000
  1       -111.4005172118  -52.5575611559   72.2164000725   -4.0901868950
  2       -116.6635475262  -20.5601904919   91.7007084249   -2.2962490369
  3       -121.6156136875  -23.2753453277   92.4544705195   -2.7706732816
  4       -123.0066153699  -21.4164712440   94.7136519632   -2.9394413820
  5       -123.8168122141  -22.6370400734   94.1384349420   -3.0798102909
  6       -123.9055073486  -21.7222843370   94.9342614757   -3.0846520419
  7       -124.0956886241  -22.4138747628   94.4617720360   -3.1224050559
  8       -124.0492758687  -21.8887017510   94.8692044073   -3.1096545890
  9       -124.1222324005  -22.2877514631   94.5777385101   -3.1254730624
 10       -124.0894611846  -22.0431086758   94.7620026738   -3.1177312036
 11       -124.1066906466  -22.1417456915   94.6895757605   -3.1215019185
 12       -124.1027421480  -22.1090398813   94.7144439268   -3.1205307857
 13       -124.1039552528  -22.1131641559   94.7116547863   -3.1207645739
 14       -124.1041718268  -22.1127261003   94.7121170471   -3.1207931979
 15       -124.1043563153  -22.1126782042   94.7122440208   -3.1208211382
 16       -124.1044853288  -22.1126702816   94.7123114748   -3.1208409484
 17       -124.1045734258  -22.1126674103   94.7123551926   -3.1208545095
 18       -124.1046334193  -22.1126657134   94.7123845864   -3.1208637603
 19       -124.1046742816  -22.1126645462   94.7124045128   -3.1208700757
 20       -124.1047021281  -22.1126636961   94.7124180731   -3.1208743926
 21       -124.1047211147  -22.1126630559   94.7124273290   -3.1208773473
 22       -124.1047340666  -22.1126625637   94.7124336643   -3.1208793718
 23       -124.1047429056  -22.1126621807   94.7124380116   -3.1208807606
 24       -124.1047489402  -22.1126618812   94.7124410017   -3.1208817142
 25       -124.1047530616  -22.1126616468   94.7124430628   -3.1208823696
 26       -124.1047558771  -22.1126614637   94.7124444863   -3.1208828204
 27       -124.1047578011  -22.1126613212   94.7124454714   -3.1208831306
 28       -124.1047591161  -22.1126612109   94.7124461541   -3.1208833444
 29       -124.1047600152  -22.1126611259   94.7124466281   -3.1208834917
 30       -124.1047606300  -22.1126610607   94.7124469575   -3.1208835933
 31       -124.1047610504  -22.1126610110   94.7124471869   -3.1208836634
 32       -124.1047613380  -22.1126609733   94.7124473467   -3.1208837118
 33       -124.1047615347  -22.1126609447   94.7124474583   -3.1208837453
 34       -124.1047616693  -22.1126609232   94.7124475361   -3.1208837684
 35       -124.1047617614  -22.1126609071   94.7124475906   -3.1208837843
Atom SCF converged after  35 iterations to a total energy of   -124.10476176

Atom SCF Calculation for H  : Z (AE atom) =   1 : Z (PS atom) =   1
Config String: 1s1.0
Orbitals (num,occ):  1     1.00
Orbitals   (num,l):  1        0
Real-space Grid (nr,dr,rmax): 1503    0.0066577896   10.0000000000
Spherical Bessel Basis (nsws,lmax,cutoff):   37    2  176.3967570603
Confining potential (l,width,scale):  0    3.0000000000  100.0000000000
  1         -0.3348525927   -0.2401819449    0.2820953128   -0.2388448411
  2         -0.4038948821   -0.2405504229    0.2866889240   -0.2416217444
  3         -0.4360732773   -0.2390089543    0.2890729861   -0.2443653791
  4         -0.4497314704   -0.2383264046    0.2899315599   -0.2456060208
  5         -0.4551901081   -0.2381357631    0.2901452306   -0.2460489407
  6         -0.4573594294   -0.2381000300    0.2901742710   -0.2461947705
  7         -0.4582326910   -0.2381004501    0.2901659451   -0.2462415077
  8         -0.4585900702   -0.2381055523    0.2901559649   -0.2462564278
  9         -0.4587384807   -0.2381092319    0.2901497571   -0.2462612174
 10         -0.4588008132   -0.2381112609    0.2901465144   -0.2462627659
 11         -0.4588272086   -0.2381122698    0.2901449456   -0.2462632682
 12         -0.4588384507   -0.2381127465    0.2901442163   -0.2462634302
 13         -0.4588432580   -0.2381129655    0.2901438848   -0.2462634814
 14         -0.4588453195   -0.2381130645    0.2901437362   -0.2462634968
 15         -0.4588462053   -0.2381131088    0.2901436700   -0.2462635011
 16         -0.4588465865   -0.2381131284    0.2901436407   -0.2462635020
 17         -0.4588467508   -0.2381131372    0.2901436278   -0.2462635020
 18         -0.4588468216   -0.2381131410    0.2901436222   -0.2462635019
Atom SCF converged after  18 iterations to a total energy of     -0.45884682

Atom SCF Calculation for O  : Z (AE atom) =   8 : Z (PS atom) =   6
Config String: 2s2.0 2p4.0
Orbitals (num,occ):  2     2.00 4.00
Orbitals   (num,l):  2        0    1
Real-space Grid (nr,dr,rmax): 1503    0.0066577896   10.0000000000
Spherical Bessel Basis (nsws,lmax,cutoff):   37    2  176.3967570603
Confining potential (l,width,scale):  0    3.0000000000  100.0000000000
Confining potential (l,width,scale):  1    3.0000000000  100.0000000000
  1         -8.3209332552   -7.4828484739   10.1554312602   -2.1270270195
  2        -15.1405599232   -3.0474882742   13.6590820486   -2.5134754209
  3        -15.5174094640   -3.1101891961   13.6243211040   -2.6472956001
  4        -15.7606118231   -3.0805775314   13.6668776248   -2.7100307789
  5        -15.8308896490   -3.0881936416   13.6633910567   -2.7338682066
  6        -15.8678540393   -3.0862312957   13.6673103078   -2.7443897972
  7        -15.8801393942   -3.0873360689   13.6669183555   -2.7485230919
  8        -15.8859601688   -3.0872977830   13.6672813272   -2.7502957173
  9        -15.8880580832   -3.0874730763   13.6672320183   -2.7510066526
 10        -15.8889924584   -3.0874981416   13.6672623218   -2.7513066537
 11        -15.8893459980   -3.0875277929   13.6672548500   -2.7514284384
 12        -15.8894977936   -3.0875355600   13.6672566096   -2.7514793465
 13        -15.8895569380   -3.0875407304   13.6672553199   -2.7515001537
 14        -15.8895817884   -3.0875424467   13.6672552475   -2.7515088021
 15        -15.8895916441   -3.0875433561   13.6672550136   -2.7515123499
 16        -15.8895957327   -3.0875436929   13.6672549605   -2.7515138192
 17        -15.8895973717   -3.0875438525   13.6672549179   -2.7515144231
 18        -15.8895980466   -3.0875439149   13.6672549044   -2.7515146726
 19        -15.8895983189   -3.0875439428   13.6672548968   -2.7515147752
 20        -15.8895984306   -3.0875439540   13.6672548940   -2.7515148175
 21        -15.8895984758   -3.0875439588   13.6672548927   -2.7515148349
Atom SCF converged after  21 iterations to a total energy of    -15.88959848

BC: Task: SINGLEPOINT
BC: +++++++++++++++ Summary of boundary conditions ++++++++++++++
BC: |       Component       |     Keyword     |   Periodicity   |
BC: |                       |                 |     X  Y  Z [1] |
BC: |-----------------------------------------------------------|
BC: | Ion-ion               | ion_ion_bc [2]  |     P  P  P     |
BC: | Local pseudopotential | pspot_bc [3]    |     P  P  P     |
BC: +++++++++++++++++++++++++++++++++++++++++++++++++++++++++++++
BC: P: Periodic, O: Open.
BC: [1] Not strictly along X, Y, Z but rather along lattice vectors A1, A2, A3.
BC: [2] Also affected by: pbc_correction_cutoff, cutoff_coulomb_type,
BC:     is_smeared_ion_rep, is_implicit_solvent, openbc_ion_ion.
BC: [3] Also affected by: is_smeared_ion_rep, is_implicit_solvent, openbc_pspot.

Determining parallel strategy ...
... using space-filling curve
... NGWF load balancing: max     13;  min     10;  average     11
... Projector load balancing: max     38;  min     18;  average     30
... Hubbard Projector load balancing: max      5;  min      0;  average      1
... done
Calculating Ewald energy ...
              Ewald: real-space energy =          276.960350
        Ewald: reciprocal-space energy =           43.844418
         Ewald: (sum_charge)**2 energy =           18.336174
         Ewald: (sum_charge**2) energy =           16.058998
                          Ewald energy =          286.409595
Basis initialisation ...
... NGWF spheres initialised
... Projector spheres initialised
... Hubbard Projector spheres initialised
... NGWF tight boxes initialised
... Projector tight boxes initialised
... Tight-boxes gathered
... NGWF basis size (local,global):        186743       968481
... PAW projector initialisation
... done

============================= Charge Augmentation ==============================
                           Aug box size:   35 x  35 x  35
================================================================================
... Hubbard projector initialisation

========================== Sparse matrix information ===========================
                        Overlap matrix filling: 100.00%
                        Density kernel filling: 100.00% (known to be dense)
              NGWF-Proj overlap matrix filling:  74.25%
                    Aug Overlap matrix filling: 100.00%
      NGWF-Hubbard Proj overlap matrix filling: 100.00%
                             VW matrix filling: 100.00%
                    Hamiltonian matrix filling: 100.00%
                  NGWF diagonal matrix filling:   7.37%
                             KS matrix filling: 100.00% 
                           KSKS matrix filling: 100.00% 
================================================================================

Sparse matrix initialisation ...
 done
NGWF initialisation ... done
============ Calculation of NGWF S^-1 using Hotelling algorithm ================ 
     Iteration  |  Spin  |  Frobenius norm and Maximum abs value (of I-S*S_n^-1)
         1           1      0.78237714E+01     0.97138740E+00
         2           1      0.75445819E+01     0.94361279E+00
         3           1      0.71300547E+01     0.89047345E+00
         4           1      0.65810157E+01     0.79316234E+00
         5           1      0.59241827E+01     0.69695021E+00
         6           1      0.52350596E+01     0.66657575E+00
         7           1      0.46179754E+01     0.63361237E+00
         8           1      0.40004052E+01     0.58017559E+00
         9           1      0.31756445E+01     0.49122501E+00
        10           1      0.21114630E+01     0.35486372E+00
        11           1      0.10126760E+01     0.18851743E+00
        12           1      0.27367242E+00     0.56174159E-01
        13           1      0.28343898E-01     0.58404965E-02
        14           1      0.43036739E-03     0.83516525E-04
        15           1      0.11231779E-06     0.22229683E-07
        16           1      0.10996106E-13     0.27755576E-14
================================================================================
 done

################################################################################
DFT+U information on atom      1 of Hubbard species Fe  
################################################################################
Using the on-atom contravariant metric, the NGWF hydrogenic character
| < \phi | \psi > |**2 matrix of Hubbard site      1 is 
  m_l =   -2          -1           0           1           2         SUM
  0.00000000 -0.00000000 -0.00000000 -0.00000000 -0.00000000 -0.00000000
  0.00000000  0.00000000 -0.00000000 -0.00000000 -0.00000001 -0.00000001
 -0.00000000  0.00000000 -0.00000000  0.00000000 -0.00000000 -0.00000000
  0.00000000 -0.00000000 -0.00000000  0.00000000 -0.00000001 -0.00000001
  0.25510260  0.00000000  0.00000000  0.00000000  0.00000000  0.25510260
  0.00000000  0.25510942 -0.00000000  0.00000000 -0.00000000  0.25510942
  0.00000000 -0.00000000  0.25663291 -0.00000000 -0.00000000  0.25663291
  0.00000000  0.00000000 -0.00000000  0.25510138 -0.00000000  0.25510138
  0.00000000 -0.00000000 -0.00000000 -0.00000000  0.25656127  0.25656127
 -0.00000000  0.00000000 -0.00000000  0.00000000  0.00000000 -0.00000000
  0.00000000 -0.00000000  0.00000000  0.00000000  0.00000000  0.00000000
  0.00000000  0.00000000 -0.00000001  0.00000000  0.00000000 -0.00000001
  0.00000000  0.00000000  0.00000000 -0.00000000  0.00000000  0.00000000
Total hydrogenic projection of NGWFs on this atom             1.27850756
################################################################################


################################################################################
Using the subspace contravariant metric, the NGWF hydrogenic character
| < \phi | \psi > |**2 matrix of Hubbard site      1 is 
  m_l =   -2          -1           0           1           2         SUM
  0.25510251 -0.00000000  0.00000000  0.00000000  0.00000000  0.25510252
 -0.00000000  0.25510936 -0.00000000  0.00000000 -0.00000000  0.25510936
  0.00000000 -0.00000000  0.25663267 -0.00000000 -0.00000000  0.25663267
  0.00000000  0.00000000 -0.00000000  0.25510132 -0.00000000  0.25510132
  0.00000000 -0.00000000 -0.00000000 -0.00000000  0.25656105  0.25656105
Total hydrogenic projection of NGWFs on this correlated site  1.27850692
################################################################################

Calculating core density ...
================================= Core Density =================================
               Core den box size:   39 x  39 x  39
================================================================================
 ... done
Density renormalisation, spin  1 ...
Target Charge:    37.000000000000 ; Input Charge:    38.000446065218
Density renormalisation, spin  2 ...
Target Charge:    36.000000000000 ; Input Charge:    38.000446065218
Density kernel initialisation
 
======= Optimisation of K by Palser-Manolopoulos canonical purification ======== 
         Iteration  |  Band structure energy |    c_n   
               1         -36.12803760036473    0.5386688
               2         -37.31048933037871    0.5322301
               3         -38.64916698438711    0.5241566
               4         -40.12337352814648    0.5169315
               5         -41.82700375189699    0.5115253
               6         -43.72977806374163    0.5142187
               7         -45.48678854656033    0.5420158
               8         -46.61760464331966    0.6075879
               9         -47.08456422383594    0.6898049
              10         -47.24935715130867    0.7636737
              11         -47.30603163511610    0.8017253
              12         -47.32841599043471    0.8063217
              13         -47.34135346885379    0.7893683
              14         -47.35337012246244    0.7653510
              15         -47.36537917751350    0.7353086
              16         -47.37716164428197    0.6972811
              17         -47.38838593741268    0.6477581
              18         -47.39860517045108    0.5794350
              19         -47.40715567093056    0.4788077
              20         -47.41228046703797    0.3645623
              21         -47.41287479764502    0.3541365
              22         -47.41307967467167    0.3681633
              23         -47.41333255851333    0.3906540
              24         -47.41363754746681    0.4226208
              25         -47.41396762693714    0.4599065
              26         -47.41425512695022    0.4889905
              27         -47.41441599001348    0.4991870
              28         -47.41445325347031    0.4999958
              29         -47.41445489327921    0.5000000
              30         -47.41445489633001    0.5000000
Termination criterion satisfied: band energy change below threshold.
Final occupancy bounds: [    0.00000000000003:    1.00000000000000]
Closest occupancy to 0.5:     1.00000000000000
================================================================================
 
======= Optimisation of K by Palser-Manolopoulos canonical purification ======== 
         Iteration  |  Band structure energy |    c_n   
               1         -35.45436190850946    0.5238481
               2         -36.72609727351614    0.5171900
               3         -38.15739392411163    0.5092076
               4         -39.71449143780302    0.5035580
               5         -41.50464603882041    0.5021228
               6         -43.44113790440419    0.5147142
               7         -45.08757792959554    0.5603517
               8         -46.01138172343076    0.6377941
               9         -46.35403101432277    0.7089518
              10         -46.47185511555865    0.7455885
              11         -46.51814399898625    0.7431087
              12         -46.54652568811134    0.7164254
              13         -46.57210813395778    0.6777312
              14         -46.59686795387795    0.6294936
              15         -46.61943860641563    0.5749647
              16         -46.63768754524186    0.5276020
              17         -46.65016163804333    0.5052684
              18         -46.65750895165084    0.5023439
              19         -46.66052014493434    0.5011239
              20         -46.66100881268684    0.5000594
              21         -46.66102551890584    0.5000000
              22         -46.66102554832294    0.5025439
              23         -46.66102554832306    0.5025439
Termination criterion satisfied: band energy change below threshold.
Final occupancy bounds: [   -0.00000000000000:    1.00000000000000]
Closest occupancy to 0.5:     1.00000000000000
================================================================================

Writing density kernel to file "Fe_EtOH_3_LowSpin.dkn" ... done

>>> Optimising kernel for current NGWFs:
   Initial electron number for spin 1:      37.00000000
   Initial electron number for spin 2:      36.00000000
     Final electron number for spin 1:      37.00000000
     Final electron number for spin 2:      36.00000000

=================== Penalty functional idempotency correction ==================
 RMS occupancy error at iteration   1:  0.000000 (step -0.5000 Ne1=     37.0000)
                                                               Ne2=     36.0000
            Final RMS occupancy error   :  0.000000 (Ne1=     37.0000)
                                                     Ne2=     36.0000
            Final occupancy bounds spin 1: [  0.000,  1.000]
            Final occupancy bounds spin 2: [  0.000,  1.000]
================================================================================

................................................................................
<<<<<<<<<<<<<< LNV (Original version) density kernel optimisation >>>>>>>>>>>>>>
~~~~~~~~~~~~~~~~~~~~~~~~~~~~~~~~~~~~~~~~~~~~~~~~~~~~~~~~~~~~~~~~~~~~~~~~~~~~~~~~
   iter  |      energy (Eh)       | rms gradient |  commutator  |   dE (Eh)

################################################################################
DFT+U information on atom      1 of Hubbard species Fe  
################################################################################
Occupancy matrix of Hubbard site      1 and spin      1 is 
  m_l =   -2          -1           0           1           2
  0.99984585  0.00002443  0.00035056  0.00000815  0.00008547
  0.00002446  0.99959239 -0.00028328  0.00037734  0.00025066
  0.00035038 -0.00028317  0.99968925  0.00006032 -0.00005754
  0.00000813  0.00037736  0.00006034  0.99960863 -0.00030345
  0.00008543  0.00025059 -0.00005758 -0.00030337  0.99973861
################################################################################
Occupancy matrix of Hubbard site      1 and spin      2 is 
  m_l =   -2          -1           0           1           2
  0.99982003  0.00000960  0.00036253  0.00004892  0.00006225
  0.00000962  0.99958387 -0.00027640  0.00040077  0.00023731
  0.00036234 -0.00027629  0.99968371  0.00004143 -0.00004678
  0.00004890  0.00040079  0.00004144  0.99954425 -0.00026678
  0.00006221  0.00023725 -0.00004681 -0.00026670  0.99971773
################################################################################
Total occupancy of Hubbard site      1 is         9.99682432 e
Local magnetic moment of Hubbard site      1 is   0.00012515 mu_B
DFT+U energy of Hubbard site      1 is            0.00023318 Ha
################################################################################

      ideal mu1:      -0.054433022268
      ideal mu2:      -0.037238183712
             Q0:        -208.436300394390
             G0:     -11.579914629121
   RMS gradient:       0.071827851145
    Initial Ne1:      37.00000000
    Initial Ne2:      36.00000000
      Final Ne1:      37.00000000
      Final Ne2:      36.00000000

=================== Penalty functional idempotency correction ==================
 RMS occupancy error at iteration   1:  0.002887 (step -0.4915 Ne1=     37.0000)
                                                               Ne2=     36.0000
 RMS occupancy error at iteration   2:  0.000015 (step -0.5000 Ne1=     37.0000)
                                                               Ne2=     36.0000
            Final RMS occupancy error   :  0.000000 (Ne1=     37.0000)
                                                     Ne2=     36.0000
            Final occupancy bounds spin 1: [  0.000,  1.000]
            Final occupancy bounds spin 2: [  0.000,  1.000]
================================================================================

    1        -2.084363003944E+02     7.1828E-02     4.6632E-02

################################################################################
DFT+U information on atom      1 of Hubbard species Fe  
################################################################################
Occupancy matrix of Hubbard site      1 and spin      1 is 
  m_l =   -2          -1           0           1           2
  0.99706108 -0.00070197 -0.00018394 -0.00055354  0.00011485
 -0.00070184  0.99769079 -0.00035838  0.00066029 -0.00009993
 -0.00018400 -0.00035828  0.99867229  0.00053774 -0.00029105
 -0.00055356  0.00066034  0.00053805  0.99779336 -0.00002605
  0.00011484 -0.00009996 -0.00029116 -0.00002603  0.99877001
################################################################################
Occupancy matrix of Hubbard site      1 and spin      2 is 
  m_l =   -2          -1           0           1           2
  0.99703499 -0.00072633 -0.00016812 -0.00048028  0.00007429
 -0.00072620  0.99766807 -0.00034376  0.00072900 -0.00013795
 -0.00016819 -0.00034368  0.99866333  0.00049320 -0.00026652
 -0.00048030  0.00072905  0.00049349  0.99758681  0.00008838
  0.00007429 -0.00013797 -0.00026662  0.00008839  0.99870663
################################################################################
Total occupancy of Hubbard site      1 is         9.97964736 e
Local magnetic moment of Hubbard site      1 is   0.00032770 mu_B
DFT+U energy of Hubbard site      1 is            0.00149201 Ha
################################################################################

      ideal mu1:      -0.161790989568
      ideal mu2:      -0.147569964310
             Q0:        -209.498242463358
             G0:     -15.645797670869
   RMS gradient:       0.061736829649
    Initial Ne1:      36.99999999
    Initial Ne2:      35.99999999
      Final Ne1:      37.00000000
      Final Ne2:      36.00000000

=================== Penalty functional idempotency correction ==================
 RMS occupancy error at iteration   1:  0.011438 (step -0.4684 Ne1=     37.0000)
                                                               Ne2=     36.0000
 RMS occupancy error at iteration   2:  0.000209 (step -0.5000 Ne1=     37.0000)
                                                               Ne2=     36.0000
 RMS occupancy error at iteration   3:  0.000000 (step -0.5000 Ne1=     37.0000)
                                                               Ne2=     36.0000
            Final RMS occupancy error   :  0.000000 (Ne1=     37.0000)
                                                     Ne2=     36.0000
            Final occupancy bounds spin 1: [  0.000,  1.000]
            Final occupancy bounds spin 2: [  0.000,  1.000]
================================================================================

    2        -2.094982424634E+02     6.1737E-02     4.0082E-02    -1.0619E+00

################################################################################
DFT+U information on atom      1 of Hubbard species Fe  
################################################################################
Occupancy matrix of Hubbard site      1 and spin      1 is 
  m_l =   -2          -1           0           1           2
  0.98044594 -0.00366461 -0.00558321 -0.00271437  0.00028805
 -0.00366416  0.98649520  0.00120260  0.00143111 -0.00336470
 -0.00558104  0.00120184  0.99009708  0.00448791 -0.00115141
 -0.00271451  0.00143125  0.00449044  0.98673042  0.00263226
  0.00028829 -0.00336430 -0.00115171  0.00263160  0.99238619
################################################################################
Occupancy matrix of Hubbard site      1 and spin      2 is 
  m_l =   -2          -1           0           1           2
  0.98042008 -0.00370985 -0.00555838 -0.00257020  0.00020936
 -0.00370941  0.98641917  0.00124495  0.00167849 -0.00349949
 -0.00555622  0.00124416  0.99007836  0.00434799 -0.00107550
 -0.00257033  0.00167863  0.00435045  0.98593609  0.00306597
  0.00020961 -0.00349906 -0.00107576  0.00306524  0.99214946
################################################################################
Total occupancy of Hubbard site      1 is         9.87115800 e
Local magnetic moment of Hubbard site      1 is   0.00115167 mu_B
DFT+U energy of Hubbard site      1 is            0.00930744 Ha
################################################################################

      ideal mu1:      -0.343514163748
      ideal mu2:      -0.334292247192
             Q0:        -210.787683173056
             G0:     -12.398346888697
   RMS gradient:       0.050308720233
    Initial Ne1:      36.99999999
    Initial Ne2:      36.00000000
      Final Ne1:      37.00000000
      Final Ne2:      36.00000000

=================== Penalty functional idempotency correction ==================
 RMS occupancy error at iteration   1:  0.020079 (step -0.4462 Ne1=     37.0000)
                                                               Ne2=     36.0000
 RMS occupancy error at iteration   2:  0.000623 (step -0.4999 Ne1=     37.0000)
                                                               Ne2=     36.0000
 RMS occupancy error at iteration   3:  0.000002 (step -0.5000 Ne1=     37.0000)
                                                               Ne2=     36.0000
            Final RMS occupancy error   :  0.000000 (Ne1=     37.0000)
                                                     Ne2=     36.0000
            Final occupancy bounds spin 1: [  0.000,  1.000]
            Final occupancy bounds spin 2: [  0.000,  1.000]
================================================================================

    3        -2.107876831731E+02     5.0309E-02     3.2665E-02    -1.2894E+00

################################################################################
DFT+U information on atom      1 of Hubbard species Fe  
################################################################################
Occupancy matrix of Hubbard site      1 and spin      1 is 
  m_l =   -2          -1           0           1           2
  0.93523565 -0.01015083 -0.02111351 -0.00722439  0.00087120
 -0.01014981  0.95500259  0.00681686  0.00421249 -0.01273596
 -0.02110457  0.00681327  0.96417085  0.01601924 -0.00329890
 -0.00722504  0.00421290  0.01602812  0.95555935  0.01014086
  0.00087212 -0.01273430 -0.00329965  0.01013826  0.97325129
################################################################################
Occupancy matrix of Hubbard site      1 and spin      2 is 
  m_l =   -2          -1           0           1           2
  0.93521271 -0.01022864 -0.02107352 -0.00696483  0.00072991
 -0.01022763  0.95480016  0.00693760  0.00492613 -0.01312095
 -0.02106460  0.00693394  0.96412425  0.01558567 -0.00306456
 -0.00696545  0.00492650  0.01559431  0.95310096  0.01147176
  0.00073083 -0.01311922 -0.00306521  0.01146894  0.97253170
################################################################################
Total occupancy of Hubbard site      1 is         9.56298950 e
Local magnetic moment of Hubbard site      1 is   0.00344995 mu_B
DFT+U energy of Hubbard site      1 is            0.03024371 Ha
################################################################################

      ideal mu1:      -0.544347587455
      ideal mu2:      -0.540579100546
             Q0:        -211.729289528921
             G0:     -10.969784926783
   RMS gradient:       0.047754709740
========================= Kernel Line Step Protection ==========================
|  Iter |  Trial Step |   RMS Occupancy Error |   Occupancy Bounds | Accepted? |
    0        0.000000                0.000000    [ 1.0000:  0.0000]
    1        0.500000                0.442481    [ 1.8297: -0.8545]        No
    2        0.250000                0.138750    [ 1.3421: -0.3529]       Yes
================================================================================

################################################################################
DFT+U information on atom      1 of Hubbard species Fe  
################################################################################
Occupancy matrix of Hubbard site      1 and spin      1 is 
  m_l =   -2          -1           0           1           2
  0.66540727 -0.04166136 -0.10109749 -0.03604668  0.00644498
 -0.04165979  0.74136679  0.05361982  0.02166863 -0.06991783
 -0.10105291  0.05359431  0.78713326  0.08349733 -0.01412867
 -0.03605051  0.02167014  0.08354367  0.74751704  0.05326519
  0.00644870 -0.06990870 -0.01413195  0.05325126  0.82602189
################################################################################
Occupancy matrix of Hubbard site      1 and spin      2 is 
  m_l =   -2          -1           0           1           2
  0.66536012 -0.04169687 -0.10096293 -0.03552962  0.00616025
 -0.04169539  0.74132480  0.05425313  0.02330997 -0.07075092
 -0.10091835  0.05422725  0.78639754  0.08005442 -0.01228540
 -0.03553308  0.02331128  0.08009900  0.73611986  0.05925495
  0.00616382 -0.07074156 -0.01228806  0.05924006  0.82281218
################################################################################
Total occupancy of Hubbard site      1 is         7.51946076 e
Local magnetic moment of Hubbard site      1 is   0.01543174 mu_B
DFT+U energy of Hubbard site      1 is            0.12569453 Ha
################################################################################

     Trial step:       0.250000000000
             Q1:        -211.245804003315
 Quadratic coef:       3.225931757302
 Linear coef   :      -2.742446231696
           Qmin:        -212.312145266393
Quadratic minimum step length (  0.106265663614) accepted
    Initial Ne1:      36.99999999
    Initial Ne2:      36.00000000
      Final Ne1:      37.00000000
      Final Ne2:      36.00000000

=================== Penalty functional idempotency correction ==================
 RMS occupancy error at iteration   1:  0.039213 (step -0.3965 Ne1=     37.0000)
                                                               Ne2=     36.0000
 RMS occupancy error at iteration   2:  0.002628 (step -0.5010 Ne1=     37.0000)
                                                               Ne2=     36.0000
 RMS occupancy error at iteration   3:  0.000046 (step -0.5002 Ne1=     37.0000)
                                                               Ne2=     36.0000
            Final RMS occupancy error   :  0.000000 (Ne1=     37.0000)
                                                     Ne2=     36.0000
            Final occupancy bounds spin 1: [ -0.000,  1.000]
            Final occupancy bounds spin 2: [ -0.000,  1.000]
================================================================================

    4        -2.117292895289E+02     4.7755E-02     3.1008E-02    -9.4161E-01

################################################################################
DFT+U information on atom      1 of Hubbard species Fe  
################################################################################
Occupancy matrix of Hubbard site      1 and spin      1 is 
  m_l =   -2          -1           0           1           2
  0.83678117 -0.02261697 -0.05216361 -0.01646349  0.00254273
 -0.02261517  0.88146175  0.02060759  0.01243236 -0.03247077
 -0.05214110  0.02059726  0.90366991  0.04089197 -0.00791204
 -0.01646538  0.01243331  0.04091449  0.88335324  0.02529325
  0.00254489 -0.03246663 -0.00791384  0.02528675  0.92541951
################################################################################
Occupancy matrix of Hubbard site      1 and spin      2 is 
  m_l =   -2          -1           0           1           2
  0.83676569 -0.02274775 -0.05209266 -0.01598036  0.00227795
 -0.02274599  0.88109227  0.02091733  0.01398671 -0.03329662
 -0.05207017  0.02090682  0.90349228  0.03955416 -0.00719466
 -0.01598215  0.01398759  0.03957597  0.87704851  0.02866398
  0.00228009 -0.03329230 -0.00719620  0.02865693  0.92362204
################################################################################
Total occupancy of Hubbard site      1 is         8.85270639 e
Local magnetic moment of Hubbard site      1 is   0.00866479 mu_B
DFT+U energy of Hubbard site      1 is            0.07178825 Ha
################################################################################

      ideal mu1:      -0.777683791294
      ideal mu2:      -0.780130712575
    5        -2.124187906106E+02     5.2106E-02     3.3829E-02    -6.8950E-01
Finished density kernel iterations (   5)

Writing density kernel to file "Fe_EtOH_3_LowSpin.dkn" ... done


>>> Density kernel optimised for the current NGWF basis:
     ~~~~~~~~~~~~~~~~~~~~~~~~~~~~~~~~~~~~~~~~~~~~~~~~~~~~~~~~~~~
     Total energy                =  -2.12418790610623E+02  Eh
     Estimated bandgap (UP spin) =  -1.1090E+00  Eh
     Estimated bandgap (DN spin) =  -1.1076E+00  Eh
     RMS occupancy error         =   1.1539E-08
     [H,K] commutator            =   3.3829E-02
     UP spin occupancy bounds    = [ -0.000:  1.000]
     DN spin occupancy bounds    = [ -0.000:  1.000]
     ~~~~~~~~~~~~~~~~~~~~~~~~~~~~~~~~~~~~~~~~~~~~~~~~~~~~~~~~~~~




################################################################################
########################### NGWF CG iteration  001 #############################
################################################################################
****** Reciprocal space K.E. preconditioning with k_zero =  3.0000 a0^-1 *******

>>> Checking for convergence of NGWFs:   NOT CONVERGED
  ========================================================================
         NGWF RMS gradient =  1.3975E-03 >  2.0000E-06  | above tolerance
  ========================================================================

>>> Improving NGWFs using line search:
============ Calculation of NGWF S^-1 using Hotelling algorithm ================ 
     Iteration  |  Spin  |  Frobenius norm and Maximum abs value (of I-S*S_n^-1)
         1           1      0.73536879E-01     0.18877196E-01
         2           1      0.81558919E-03     0.25643422E-03
         3           1      0.19106453E-06     0.73437456E-07
         4           1      0.14374977E-13     0.58841820E-14
================================================================================

################################################################################
DFT+U information on atom      1 of Hubbard species Fe  
################################################################################
Occupancy matrix of Hubbard site      1 and spin      1 is 
  m_l =   -2          -1           0           1           2
  0.82880657 -0.02330144 -0.05417998 -0.01681126  0.00265183
 -0.02329961  0.87486251  0.02153737  0.01398998 -0.03355497
 -0.05415663  0.02152658  0.89837199  0.04269574 -0.00836347
 -0.01681328  0.01399099  0.04271922  0.87704004  0.02603923
  0.00265408 -0.03355076 -0.00836538  0.02603256  0.92077372
################################################################################
Occupancy matrix of Hubbard site      1 and spin      2 is 
  m_l =   -2          -1           0           1           2
  0.82879035 -0.02343416 -0.05410635 -0.01631606  0.00238031
 -0.02343237  0.87448733  0.02185794  0.01558192 -0.03440144
 -0.05408302  0.02184697  0.89818107  0.04129847 -0.00761374
 -0.01631796  0.01558285  0.04132121  0.87050988  0.02953229
  0.00238254 -0.03439705 -0.00761538  0.02952505  0.91890875
################################################################################
Total occupancy of Hubbard site      1 is         8.79073220 e
Local magnetic moment of Hubbard site      1 is   0.00897747 mu_B
DFT+U energy of Hubbard site      1 is            0.07504051 Ha
################################################################################

============ Calculation of NGWF S^-1 using Hotelling algorithm ================ 
     Iteration  |  Spin  |  Frobenius norm and Maximum abs value (of I-S*S_n^-1)
         1           1      0.53902287E+00     0.13748239E+00
         2           1      0.44472947E-01     0.14310876E-01
         3           1      0.61324960E-03     0.22553887E-03
         4           1      0.16674967E-06     0.67109375E-07
         5           1      0.18233128E-13     0.89650509E-14
================================================================================
------------------------------- NGWF line search -------------------------------
RMS gradient                =       0.00139754091454
Trial step length           =               0.122474
Gradient along search dir.  =         -4.28744934274
Functional at step 0        =    -212.41879061062338
Functional at step 1        =    -212.91166316157461
Functional predicted        =    -214.55754427815404
Selected quadratic step     =               0.997681
Conjugate gradients coeff.  =               0.000000
--------------------------- NGWF line search finished --------------------------
                                               
Writing NGWFs to file "Fe_EtOH_3_LowSpin.tightbox_ngwfs".... done

>>> Optimising kernel for current NGWFs:
   Initial electron number for spin 1:      37.42179100
   Initial electron number for spin 2:      36.41941555
     Final electron number for spin 1:      37.00000000
     Final electron number for spin 2:      36.00000000

=================== Penalty functional idempotency correction ==================
 RMS occupancy error at iteration   1:  0.009978 (step -0.4703 Ne1=     37.0000)
                                                               Ne2=     36.0000
 RMS occupancy error at iteration   2:  0.000329 (step -0.5008 Ne1=     37.0000)
                                                               Ne2=     36.0000
 RMS occupancy error at iteration   3:  0.000001 (step -0.5000 Ne1=     37.0000)
                                                               Ne2=     36.0000
            Final RMS occupancy error   :  0.000000 (Ne1=     37.0000)
                                                     Ne2=     36.0000
            Final occupancy bounds spin 1: [  0.000,  1.000]
            Final occupancy bounds spin 2: [  0.000,  1.000]
================================================================================

................................................................................
<<<<<<<<<<<<<< LNV (Original version) density kernel optimisation >>>>>>>>>>>>>>
~~~~~~~~~~~~~~~~~~~~~~~~~~~~~~~~~~~~~~~~~~~~~~~~~~~~~~~~~~~~~~~~~~~~~~~~~~~~~~~~
   iter  |      energy (Eh)       | rms gradient |  commutator  |   dE (Eh)

################################################################################
DFT+U information on atom      1 of Hubbard species Fe  
################################################################################
Occupancy matrix of Hubbard site      1 and spin      1 is 
  m_l =   -2          -1           0           1           2
  0.75928956 -0.02683835 -0.06550178 -0.01794000  0.00330770
 -0.02683643  0.81191639  0.02741046  0.02621253 -0.03975088
 -0.06547390  0.02739678  0.84519626  0.05424799 -0.01155729
 -0.01794299  0.02621394  0.05427753  0.81653579  0.02992060
  0.00331053 -0.03974645 -0.01156010  0.02991310  0.86988231
################################################################################
Occupancy matrix of Hubbard site      1 and spin      2 is 
  m_l =   -2          -1           0           1           2
  0.75927307 -0.02698155 -0.06540587 -0.01736150  0.00298993
 -0.02697967  0.81153587  0.02779747  0.02798669 -0.04069835
 -0.06537802  0.02778358  0.84489822  0.05242050 -0.01057361
 -0.01736433  0.02798800  0.05244907  0.80856347  0.03420194
  0.00299273 -0.04069371 -0.01057607  0.03419374  0.86758804
################################################################################
Total occupancy of Hubbard site      1 is         8.19467899 e
Local magnetic moment of Hubbard site      1 is   0.01096164 mu_B
DFT+U energy of Hubbard site      1 is            0.10407150 Ha
################################################################################

      ideal mu1:      -0.892368676029
      ideal mu2:      -0.899494116810
             Q0:        -214.431623957034
             G0:      -3.585981036679
   RMS gradient:       0.039970924143

################################################################################
DFT+U information on atom      1 of Hubbard species Fe  
################################################################################
Occupancy matrix of Hubbard site      1 and spin      1 is 
  m_l =   -2          -1           0           1           2
  0.78131050 -0.02540427 -0.05777591 -0.01447363  0.00112435
 -0.02540247  0.82577762  0.02453893  0.02806127 -0.03495575
 -0.05775169  0.02452655  0.86083585  0.04762619 -0.01098152
 -0.01447634  0.02806253  0.04765209  0.83242104  0.02701658
  0.00112747 -0.03495218 -0.01098404  0.02700998  0.87979615
################################################################################
Occupancy matrix of Hubbard site      1 and spin      2 is 
  m_l =   -2          -1           0           1           2
  0.78131634 -0.02555759 -0.05773644 -0.01396666  0.00083445
 -0.02555584  0.82533070  0.02502274  0.03021033 -0.03609689
 -0.05771221  0.02501008  0.86059942  0.04546250 -0.00980808
 -0.01396916  0.03021145  0.04548728  0.82291286  0.03213837
  0.00083751 -0.03609306 -0.00981020  0.03213093  0.87704102
################################################################################
Total occupancy of Hubbard site      1 is         8.34734150 e
Local magnetic moment of Hubbard site      1 is   0.01294082 mu_B
DFT+U energy of Hubbard site      1 is            0.09761007 Ha
################################################################################

     Trial step:       0.162992073131
             Q1:        -214.801252032386
 Quadratic coef:       0.214858408023
 Linear coef   :      -0.584486483375
           Qmin:        -214.829123468912
Quadratic minimum step length (  0.221696382559) accepted
    Initial Ne1:      37.00000000
    Initial Ne2:      36.00000000
      Final Ne1:      37.00000000
      Final Ne2:      36.00000000

=================== Penalty functional idempotency correction ==================
 RMS occupancy error at iteration   1:  0.006887 (step -0.4687 Ne1=     37.0000)
                                                               Ne2=     36.0000
 RMS occupancy error at iteration   2:  0.000083 (step -0.4999 Ne1=     37.0000)
                                                               Ne2=     36.0000
            Final RMS occupancy error   :  0.000000 (Ne1=     37.0000)
                                                     Ne2=     36.0000
            Final occupancy bounds spin 1: [  0.000,  1.000]
            Final occupancy bounds spin 2: [  0.000,  1.000]
================================================================================

    1        -2.144316239570E+02     3.9971E-02     2.5950E-02

################################################################################
DFT+U information on atom      1 of Hubbard species Fe  
################################################################################
Occupancy matrix of Hubbard site      1 and spin      1 is 
  m_l =   -2          -1           0           1           2
  0.78901064 -0.02492692 -0.05508763 -0.01321230  0.00029787
 -0.02492518  0.83032767  0.02365823  0.02878980 -0.03349448
 -0.05506466  0.02364624  0.86616668  0.04536956 -0.01078388
 -0.01321492  0.02879099  0.04539422  0.83778779  0.02618985
  0.00030111 -0.03349117 -0.01078628  0.02618353  0.88305486
################################################################################
Occupancy matrix of Hubbard site      1 and spin      2 is 
  m_l =   -2          -1           0           1           2
  0.78902350 -0.02508181 -0.05506717 -0.01273289  0.00001991
 -0.02508013  0.82985846  0.02417564  0.03106807 -0.03470142
 -0.05504418  0.02416337  0.86594647  0.04308171 -0.00954237
 -0.01273528  0.03106913  0.04310520  0.82771230  0.03161474
  0.00002307 -0.03469784 -0.00954436  0.03160752  0.88013687
################################################################################
Total occupancy of Hubbard site      1 is         8.39902523 e
Local magnetic moment of Hubbard site      1 is   0.01367003 mu_B
DFT+U energy of Hubbard site      1 is            0.09531606 Ha
################################################################################

      ideal mu1:      -0.837181058588
      ideal mu2:      -0.842768371751
             Q0:        -214.849660770455
             G0:      -0.782837306572
   RMS gradient:       0.017723049268

################################################################################
DFT+U information on atom      1 of Hubbard species Fe  
################################################################################
Occupancy matrix of Hubbard site      1 and spin      1 is 
  m_l =   -2          -1           0           1           2
  0.78684244 -0.02619442 -0.05400282 -0.00945466 -0.00332777
 -0.02619307  0.81782335  0.02691102  0.03706209 -0.03603318
 -0.05398030  0.02689761  0.86329799  0.04531187 -0.01179527
 -0.00945759  0.03706320  0.04533640  0.83101429  0.02947391
 -0.00332335 -0.03602987 -0.01179759  0.02946699  0.87408554
################################################################################
Occupancy matrix of Hubbard site      1 and spin      2 is 
  m_l =   -2          -1           0           1           2
  0.78687339 -0.02635482 -0.05404943 -0.00905852 -0.00356768
 -0.02635354  0.81727620  0.02763710  0.03999034 -0.03756107
 -0.05402684  0.02762329  0.86298130  0.04196554 -0.00999797
 -0.00906107  0.03999126  0.04198839  0.81698730  0.03693485
 -0.00356341 -0.03755741 -0.00999971  0.03692671  0.87011046
################################################################################
Total occupancy of Hubbard site      1 is         8.32729227 e
Local magnetic moment of Hubbard site      1 is   0.01883497 mu_B
DFT+U energy of Hubbard site      1 is            0.09858366 Ha
################################################################################

     Trial step:       0.190091433260
             Q1:        -214.985518146035
 Quadratic coef:       0.012953290035
 Linear coef   :      -0.148810665616
           Qmin:        -215.277054392858
Quadratic minimum step length (  1.091909184233) accepted
    Initial Ne1:      37.00000017
    Initial Ne2:      36.00000007
      Final Ne1:      37.00000000
      Final Ne2:      36.00000000

=================== Penalty functional idempotency correction ==================
 RMS occupancy error at iteration   1:  0.053466 (step -0.3246 Ne1=     37.0000)
                                                               Ne2=     36.0000
 RMS occupancy error at iteration   2:  0.006400 (step -0.4947 Ne1=     37.0000)
                                                               Ne2=     36.0000
 RMS occupancy error at iteration   3:  0.000267 (step -0.5018 Ne1=     37.0000)
                                                               Ne2=     36.0000
            Final RMS occupancy error   :  0.000000 (Ne1=     37.0000)
                                                     Ne2=     36.0000
            Final occupancy bounds spin 1: [ -0.000,  1.000]
            Final occupancy bounds spin 2: [ -0.000,  1.000]
================================================================================

    2        -2.148496607705E+02     1.7723E-02     1.1513E-02    -4.1804E-01

################################################################################
DFT+U information on atom      1 of Hubbard species Fe  
################################################################################
Occupancy matrix of Hubbard site      1 and spin      1 is 
  m_l =   -2          -1           0           1           2
  0.77174097 -0.02931450 -0.05305612  0.01034991 -0.02166479
 -0.02931612  0.74843862  0.05009190  0.07530882 -0.05272399
 -0.05303277  0.05006882  0.83947137  0.05065159 -0.01764384
  0.01034486  0.07530935  0.05067834  0.79158294  0.05011100
 -0.02165399 -0.05272005 -0.01764568  0.05009964  0.82187285
################################################################################
Occupancy matrix of Hubbard site      1 and spin      2 is 
  m_l =   -2          -1           0           1           2
  0.77173366 -0.02947293 -0.05384579  0.00911892 -0.02119983
 -0.02947462  0.74814830  0.05107599  0.07839044 -0.05421146
 -0.05382180  0.05105230  0.83807845  0.04155211 -0.01336673
  0.00911509  0.07839046  0.04157437  0.75933790  0.06534231
[...]
*                       x            y            z      *
*                                                        *
*    Fe      1     -0.00000000   0.00000000   0.00000000 *
*    O       2     -0.00000081  -0.00000305  -0.00000114 *
*    O       3      0.00000065   0.00000306   0.00000029 *
*    O       4     -0.00000290  -0.00000128  -0.00000096 *
*    H       5      0.00000000   0.00000000   0.00000000 *
*    C       6      0.01548391   0.00196065   0.00383971 *
*    H       7      0.00000000   0.00000000   0.00000000 *
*    C       8      0.00206210   0.01611296   0.00289472 *
*    H       9      0.00000000   0.00000000   0.00000000 *
*    C      10     -0.00592544  -0.01432114   0.00411523 *
*    H      11      0.00000000   0.00000000   0.00000000 *
*    H      12      0.00000000   0.00000000   0.00000000 *
*    C      13     -0.00113695   0.00426722  -0.00296762 *
*    H      14      0.00000000   0.00000000   0.00000000 *
*    H      15      0.00000000   0.00000000   0.00000000 *
*    H      16      0.00000000   0.00000000   0.00000000 *
*    H      17      0.00000000   0.00000000   0.00000000 *
*    C      18     -0.00297467  -0.00186248   0.00369577 *
*    H      19      0.00000000   0.00000000   0.00000000 *
*    H      20      0.00000000   0.00000000   0.00000000 *
*    H      21      0.00000000   0.00000000   0.00000000 *
*    H      22      0.00000000   0.00000000   0.00000000 *
*    H      23      0.00000000   0.00000000   0.00000000 *
*    H      24      0.00000000   0.00000000   0.00000000 *
*    C      25      0.00394431  -0.00313171  -0.00063074 *
*    H      26      0.00000000   0.00000000   0.00000000 *
*    H      27      0.00000000   0.00000000   0.00000000 *
*    H      28      0.00000000   0.00000000   0.00000000 *
*                                                        *
**********************************************************
TOTAL:              0.01145021   0.00302422   0.01094527
 
********************* Unconstrained **********************
********************** DFT+U forces **********************
*                                                        *
* Element  Atom         Cartesian components (Eh/a)      *
* ------------------------------------------------------ *
*                       x            y            z      *
*                                                        *
*    Fe      1      0.00109964   0.00063842  -0.00051529 *
*    O       2      0.00000000   0.00000000   0.00000000 *
*    O       3      0.00000000   0.00000000   0.00000000 *
*    O       4      0.00000000   0.00000000   0.00000000 *
*    H       5      0.00000000   0.00000000   0.00000000 *
*    C       6      0.00000000   0.00000000   0.00000000 *
*    H       7      0.00000000   0.00000000   0.00000000 *
*    C       8      0.00000000   0.00000000   0.00000000 *
*    H       9      0.00000000   0.00000000   0.00000000 *
*    C      10      0.00000000   0.00000000   0.00000000 *
*    H      11      0.00000000   0.00000000   0.00000000 *
*    H      12      0.00000000   0.00000000   0.00000000 *
*    C      13      0.00000000   0.00000000   0.00000000 *
*    H      14      0.00000000   0.00000000   0.00000000 *
*    H      15      0.00000000   0.00000000   0.00000000 *
*    H      16      0.00000000   0.00000000   0.00000000 *
*    H      17      0.00000000   0.00000000   0.00000000 *
*    C      18      0.00000000   0.00000000   0.00000000 *
*    H      19      0.00000000   0.00000000   0.00000000 *
*    H      20      0.00000000   0.00000000   0.00000000 *
*    H      21      0.00000000   0.00000000   0.00000000 *
*    H      22      0.00000000   0.00000000   0.00000000 *
*    H      23      0.00000000   0.00000000   0.00000000 *
*    H      24      0.00000000   0.00000000   0.00000000 *
*    C      25      0.00000000   0.00000000   0.00000000 *
*    H      26      0.00000000   0.00000000   0.00000000 *
*    H      27      0.00000000   0.00000000   0.00000000 *
*    H      28      0.00000000   0.00000000   0.00000000 *
*                                                        *
**********************************************************
TOTAL:              0.00109964   0.00063842  -0.00051529
 
********************* Unconstrained **********************
****** Correction to ensure the total force is zero ******
*                                                        *
* Element  Atom         Cartesian components (Eh/a)      *
* ------------------------------------------------------ *
*                       x            y            z      *
*                                                        *
*    Fe      1     -0.00002312  -0.00007071  -0.00014638 *
*    O       2     -0.00002312  -0.00007071  -0.00014638 *
*    O       3     -0.00002312  -0.00007071  -0.00014638 *
*    O       4     -0.00002312  -0.00007071  -0.00014638 *
*    H       5     -0.00002312  -0.00007071  -0.00014638 *
*    C       6     -0.00002312  -0.00007071  -0.00014638 *
*    H       7     -0.00002312  -0.00007071  -0.00014638 *
*    C       8     -0.00002312  -0.00007071  -0.00014638 *
*    H       9     -0.00002312  -0.00007071  -0.00014638 *
*    C      10     -0.00002312  -0.00007071  -0.00014638 *
*    H      11     -0.00002312  -0.00007071  -0.00014638 *
*    H      12     -0.00002312  -0.00007071  -0.00014638 *
*    C      13     -0.00002312  -0.00007071  -0.00014638 *
*    H      14     -0.00002312  -0.00007071  -0.00014638 *
*    H      15     -0.00002312  -0.00007071  -0.00014638 *
*    H      16     -0.00002312  -0.00007071  -0.00014638 *
*    H      17     -0.00002312  -0.00007071  -0.00014638 *
*    C      18     -0.00002312  -0.00007071  -0.00014638 *
*    H      19     -0.00002312  -0.00007071  -0.00014638 *
*    H      20     -0.00002312  -0.00007071  -0.00014638 *
*    H      21     -0.00002312  -0.00007071  -0.00014638 *
*    H      22     -0.00002312  -0.00007071  -0.00014638 *
*    H      23     -0.00002312  -0.00007071  -0.00014638 *
*    H      24     -0.00002312  -0.00007071  -0.00014638 *
*    C      25     -0.00002312  -0.00007071  -0.00014638 *
*    H      26     -0.00002312  -0.00007071  -0.00014638 *
*    H      27     -0.00002312  -0.00007071  -0.00014638 *
*    H      28     -0.00002312  -0.00007071  -0.00014638 *
*                                                        *
**********************************************************
TOTAL:             -0.00064741  -0.00197987  -0.00409863

********************* Unconstrained **********************
************************* Forces *************************
*                                                        *
* Element  Atom         Cartesian components (Eh/a)      *
* ------------------------------------------------------ *
*                       x            y            z      *
*                                                        *
*    Fe      1      0.00020119   0.00075144   0.00532599 *
*    O       2      0.00484063  -0.00118579   0.00152374 *
*    O       3      0.00058877  -0.00215412  -0.00670469 *
*    O       4     -0.00214521   0.00418156   0.00372960 *
*    H       5     -0.00840696  -0.00155700  -0.00622236 *
*    C       6      0.00561095   0.00135026   0.00097525 *
*    H       7      0.00054355   0.00636876   0.00782672 *
*    C       8      0.00099665   0.00469791   0.00196736 *
*    H       9     -0.00120195  -0.00637701  -0.00814795 *
*    C      10     -0.00066777  -0.00510945   0.00055774 *
*    H      11      0.00404750  -0.00019537   0.00099262 *
*    H      12     -0.00199935   0.00062905   0.00296103 *
*    C      13     -0.00007624  -0.00240906  -0.00409586 *
*    H      14      0.00161879  -0.00025857  -0.00220019 *
*    H      15      0.00010775   0.00462359   0.00172152 *
*    H      16     -0.00402579   0.00027127  -0.00080339 *
*    H      17     -0.00192577  -0.00113758  -0.00361787 *
*    C      18     -0.00150048   0.00453180   0.00019051 *
*    H      19      0.00266778  -0.00188547  -0.00011294 *
*    H      20     -0.00242880   0.00087281  -0.00028128 *
*    H      21      0.00178087   0.00042674   0.00313045 *
*    H      22     -0.00109102  -0.00491602   0.00093010 *
*    H      23     -0.00014337   0.00031418   0.00394756 *
*    H      24      0.00033772   0.00302001  -0.00139645 *
*    C      25     -0.00271671  -0.00301309  -0.00120185 *
*    H      26     -0.00015261  -0.00260366   0.00141322 *
*    H      27      0.00451602   0.00062377   0.00109257 *
*    H      28      0.00062385   0.00013904  -0.00350114 *
*                                                        *
**********************************************************
* TOTAL:           -0.00000000   0.00000000  -0.00000000 *
**********************************************************
 
 
***********************************************************
********** Summary of Forces (values in Eh/a) *************
*                                                         *
* ---------------------- Minimum ------------------------ *
* Atom:        20, |F|min =    0.00259614                 *
* Components:     Fx|min       Fy|min       Fz|min        *
*              -0.00242880   0.00087281  -0.00028128      *
*                                                         *
* ---------------------- Maximum ------------------------ *
* Atom:         5, |F|max =    0.01057445                 *
* Components:     Fx|max       Fy|max       Fz|max        *
*              -0.00840696  -0.00155700  -0.00622236      *
*                                                         *
* ---------------- Root Mean Square Force --------------- *
*                  |F|rms =    0.00547875                 *
* Components:     Fx|rms       Fy|rms       Fz|rms        *
*               0.00283249   0.00305594   0.00355736      *
***********************************************************
 

------------------------------ TIMING INFORMATION ------------------------------
AVERAGE TIME:    5884.681s on      6 proc(s)                                    
TOTAL TIME:      5884.682s on      6 proc(s)                                    
==================== AVERAGE TIMINGS FROM ALL PROCS (CUMULATIVE) =====================
|| TAG                                         #calls     cpu time   %total  Gflops ||
|| hubbard_species_proj                       :     1        0.00s   0.000%  ------ ||
|| hubbard_ngwf_on_grid                       :     1        0.00s   0.000%  ------ ||
|| hubbard_projector_character                :     1        0.00s   0.000%  ------ ||
|| hubbard_ngwf_select                        :     1        0.00s   0.000%  ------ ||
|| linalg_invert_sym_matrix                   :     2        0.00s   0.000%  ------ || (1 procs only)
|| hash_table_free                            :    75        0.00s   0.000%  ------ ||
|| hubbard_tensorial_correction               :     2        0.00s   0.000%  ------ ||
|| sparse_spam3toblacs_real_fast_imbal        :     6        0.00s   0.000%  ------ ||
|| sparse_spam3toblacs_real_fast_B2           :    36        0.00s   0.000%  ------ ||
|| ewald_calculate_forces_realspace           :     1        0.00s   0.000%  ------ ||
|| sparse_blacstospam3_real_fast_imbal        :    24        0.00s   0.000%  ------ ||
|| sparse_spam3toblacs_real_fast_B1           :    36        0.00s   0.000%  ------ ||
|| onetep.F90 final imbalance                 :     1        0.00s   0.000%  ------ ||
|| density_fftbox_interp_mult_imbal           : 10114        0.00s   0.000%  ------ ||
|| sparse_spam3toblacs_real_fast              :     6        0.00s   0.000%  ------ ||
|| ewald_calculate_energy                     :     1        0.00s   0.000%  ------ ||
|| sw_bessel_init_cpu                         :     1        0.01s   0.000%  ------ || (1 procs only)
|| linalg_dsyev_lt                            :   385        0.02s   0.000%  ------ || (1 procs only)
|| ewald_calculate_forces_recipspace          :     1        0.00s   0.000%  ------ ||
|| ewald_calculate_forces                     :     1        0.00s   0.000%  ------ ||
|| sparse_set_to_garbage                      :  1117        0.01s   0.000%  ------ ||
|| sparse_blacstospam3_real_fast              :    24        0.01s   0.000%  ------ ||
|| sparse_init                                :     1        0.01s   0.000%  ------ ||
|| hubbard_projection_mtx                     :    77        0.02s   0.000%  ------ ||
|| onetep.F90 main loop imbalance             :     1        0.02s   0.000%  ------ ||
|| paw_dij_hartree                            :   425        0.02s   0.000%  ------ ||
|| linalg_dgemv                               :   127        0.03s   0.001%  ------ ||
|| augmentation_density_forces                :     1        0.05s   0.001%  ------ ||
|| sw_init                                    :   793        0.07s   0.001%  ------ ||
|| palser_mano_kernel_optimise_spam3_embed    :     2        0.08s   0.001%  ------ ||
|| sparse_embed_array_hotelling_invert        :    75        0.08s   0.001%  ------ ||
|| basis_extract_function_from_box            :  1697        0.08s   0.001%  ------ ||
|| dense_eigensolve                           :     2        0.09s   0.001%  ------ ||
|| hubbard_ham_matrix                         :   192        0.09s   0.001%  ------ ||
|| restart_kernel_write                       :    39        0.10s   0.002%  ------ ||
|| paw_tcore_density                          :     1        0.11s   0.002%  ------ ||
|| hubbard_projector_ham                      :   191        0.12s   0.002%  ------ ||
|| hubbard_calculate_forces                   :     1        0.16s   0.003%  ------ ||
|| pseudo_make_structure_factor               :     1        0.17s   0.003%  ------ ||
|| ngwfs_initialise_from_radial               :     2        0.25s   0.004%  ------ ||
|| paw_tcore_hartree_on_grid                  :     1        0.32s   0.005%  ------ ||
|| nonsc_forces_ngwfs_calc                    :     1        0.33s   0.006%  ------ ||
|| paw_sphere_density_on_grid                 :     1        0.37s   0.006%  ------ ||
|| integrals_grad_spam3                       :     2        0.49s   0.008%  ------ ||
|| paw_tcore_hartree_calc_forces              :     1        0.57s   0.010%  ------ ||
|| hubbard_energy_total                       :   385        0.58s   0.010%  ------ ||
|| lnv_gradient_norm                          :   190        0.73s   0.012%  ------ ||
|| kernel_purify                              :   605        0.85s   0.014%  ------ ||
|| kernel_fix                                 :   190        1.16s   0.020%  ------ ||
|| sparse_trace                               : 16628        1.51s   0.026%  ------ ||
|| hubbard_projector_update                   :     1        1.63s   0.028%  ------ ||
|| paw_dataset_init                           :     4        1.75s   0.030%  ------ ||
|| function_ops_brappd_ketppd_spam3           :   152        1.82s   0.031%  ------ ||
|| projectors_func_grad_ovlp_box_spam3        :     3        2.39s   0.041%  ------ ||
|| aug_nl_calculate_forces                    :     1        2.51s   0.043%  ------ ||
|| paw_species_calc_proj_prec_mat             :     1        2.85s   0.048%  ------ ||
|| paw_nlcc_calculate_forces                  :     1        3.46s   0.059%  ------ ||
|| sparse_product                             : 27256        4.28s   0.073%  ------ ||
|| ngwf_gradient_coeffs                       :    38        4.39s   0.075%  ------ ||
|| restart_ngwfs_tightbox_output              :    37        5.11s   0.087%  ------ ||
|| eigenstates_calculate                      :     1        5.46s   0.093%  ------ ||
|| energy_and_force_init_cell                 :     1        7.59s   0.129%  ------ ||
|| basis_copy_function_to_box                 : 14863       10.97s   0.186%  ------ ||
|| fourier_apply_box_pair                     :  2153       12.12s   0.206% 116.680 ||
|| integrals_kinetic_spam3                    :    75       12.15s   0.206%  ------ ||
|| basis_dot_function_with_box                : 459.1k      12.50s   0.212%  ------ ||
|| augmentation_screen_dij_spam3              :   403       17.01s   0.289%  ------ ||
|| forces_calculate                           :     1       18.11s   0.308%  ------ ||
|| density_init_guess_real                    :     2       19.88s   0.338%  ------ ||
|| cell_grid_extract_box_real                 : 12505       20.71s   0.352%  ------ ||
|| basis_add_function_to_box                  : 818.0k      23.42s   0.398%  ------ ||
|| density_batch_row_sums                     :   778       23.57s   0.401%  ------ ||
|| aug_nonlocal_mat_spam3_embed_array         :   386       41.86s   0.711%  ------ ||
|| paw_dij_xc                                 :   425       45.39s   0.771%  ------ ||
|| cell_grid_deposit_box_real                 : 15921       48.10s   0.817%  ------ ||
|| aug_density_on_grid_spam3                  :   389       64.60s   1.098%  ------ ||
|| integrals_locpot_mat_els_batch             :   416       65.94s   1.121%  ------ ||
|| density_fftbox_deposit_to_cell             : 10114       77.58s   1.318%  ------ ||
|| fourier_filter_cell                        :   492       98.76s   1.678%  25.267 ||
|| projectors_func_ovlp_box_spam3             :   153      101.83s   1.730%  ------ ||
|| projectors_init_fftbox_recip               :   385      102.18s   1.736%  ------ ||
|| properties_calculate                       :     1      118.39s   2.012%  ------ ||
|| hamiltonian_energy_components              :     8      119.42s   2.029%  ------ ||
|| fourier_filter                             :  3344      125.67s   2.136%  ------ ||
|| hartree_on_grid_single                     :   388      143.05s   2.431%  ------ ||
|| fourier_interpolate_cell                   :   778      157.08s   2.669%  25.118 ||
|| fourier_interpolate                        :  3344      197.81s   3.361%  ------ ||
|| projectors_grad_precond_batch              :    76      515.55s   8.761%  ------ ||
|| fourier_interpolate_product                :  8687      523.45s   8.895%  ------ ||
|| potential_apply_to_ngwf_batch              :   416      529.99s   9.006%  ------ ||
|| fourier_apply_box                          : 60179      558.76s   9.495% 198.021 ||
|| density_fftbox_interpolate_multiply        : 10114      564.67s   9.596%  ------ ||
|| fourier_apply_cell_forward                 :  3493      578.46s   9.830%  27.566 ||
|| integrals_locpot_dbl_grid                  :   416      596.04s  10.129%  ------ ||
|| fourier_apply_cell_backward                :  3493      611.04s  10.384%  26.096 ||
|| projectors_gradient_batch                  :   152      933.57s  15.864%  ------ ||
|| density_batch_interp_deposit               :   778      960.91s  16.329%  ------ ||
|| density_on_dbl_grid                        :   778      999.53s  16.985%  ------ ||
|| xc_energy_potential                        :   388     1300.43s  22.099%  ------ ||
|| ngwf_gradient_build_batch                  :    76     1681.05s  28.567%  ------ ||
|| ngwf_gradient_batch                        :    76     1799.66s  30.582%  ------ ||
|| ngwf_gradient_lnv                          :    38     1826.55s  31.039%  ------ ||
|| hamiltonian_lhxc_calculate                 :   378     2890.33s  49.116%  ------ ||
|| lnv_denskernel_optimise_cg                 :    38     3269.23s  55.555%  ------ ||
|| ngwf_cg_optimise                           :     1     5702.86s  96.910%  ------ ||
|| energy_and_forces                          :     1     5876.66s  99.864%  ------ ||
|| total_time                                 :     1     5884.68s 100.000%  ------ ||
======================================================================================
Overhead of generating timer report: 
- 0 ms averaging over threads,
- 0 ms ensuring consistency across MPI ranks,
- 0 ms printing in order.

Job completed: 28-06-2025 13:49 (+0100)

onetep_launcher: ONETEP seems to have finished correctly (zero exit code).
                 Brought to you by PID 2182 on nid002866.
