==================================================================================
It's Sat 28 Jun 2025 12:10:54 PM BST.
*** Starting onetep_launcher (node nid005560, PIDs 43174 43175 43176 43177 43178 43179)...
    - ONETEP arguments: Fe_EtOH_3_LowSpin_NGWFSP.dat
    - Current directory: /mnt/lustre/a2fs-work3/work/e89/e89/phsmea/onetep_ali/Fe_EtOH_3/LS/sp
    - Launcher executable directory: /mnt/lustre/a2fs-work3/work/e89/e89/phsmea/onetep_ali
    - (-e) ONETEP executable specified through command-line: /work/e89/e89/phsmea/onetep.archer2_2024_cray_2
      ... trying /work/e89/e89/phsmea/onetep.archer2_2024_cray_2
          -> looks OK
*** Setting up environment...
    - (-s) Process stack size: unlimited
    - (-t) OMP_NUM_THREADS: 8
    - (-o) OMP_STACKSIZE: 64M
    - (-c) Maximum core file size: 2048000
    - (-d) decfort_dump_flag: n
    - (-m) I_MPI_OFA_TRANSLATION_CACHE: 0
    - (-m) I_MPI_DAPL_TRANSLATION_CACHE: 0
    - (-m) I_MPI_DAPL_UD_TRANSLATION_CACHE: 0
*** Starting ONETEP...
    - /work/e89/e89/phsmea/onetep.archer2_2024_cray_2 Fe_EtOH_3_LowSpin_NGWFSP.dat
=================================================================================
_________________________________________________________________________________
 +---------------------------------------------------------------+
 |                                                               |
 |        ####### #     # ####### ####### ####### ######         |
 |        #     # ##    # #          #    #       #     #        |
 |        #     # # #   # #          #    #       #     #        |
 |        #     # #  #  # #####      #    #####   ######         |
 |        #     # #   # # #          #    #       #              |
 |        #     # #    ## #          #    #       #              |
 |        ####### #     # #######    #    ####### #              |
 |                                                               |
 |        Linear-Scaling Ab Initio Total Energy Program          |
 |                                                               |
 |          Release for academic collaborators of ODG            |
 |                                             Version 7.3.0     |
 | Remote: git@github.com:Miesaz/onetep_mea.git                  |
 | Local branch: master                                          |
 | Commit ID: 4af45e89288c8df5499704252eec3e032ee3d0c8           |
 | Date: Tue Aug 6 11:28:44 2024 +0100                           |
 | Locally modified files:                                       |
 |   src/hubbard_build_mod.F90                                   |
 |   src/services_mod.F90                                        |
 |                                                               |
 +---------------------------------------------------------------+
 |                                                               |
 |  Authors:                                                     |
 |  Jacek Dziedzic, Peter D. Haynes, Nicholas D. M. Hine,        |
 |  Arash A. Mostofi, Mike C. Payne and Chris-Kriton Skylaris    |
 |                                                               |
 |  Contributors:                                                |
 |  J. Aarons, L. Andrinopoulos, P. W. Avraam, R. A. Bell,       |
 |  A. Bhandari, G. A. Bramley, R. J. Charlton, S. J. Clark,     |
 |  R. J. Clements, G. C. Constantinescu, F. Corsetti,           |
 |  N. Corsini, O. Dieguez, S. M. M. Dubois, K. K. B. Duff,      |
 |  J. M. Escartin, M. Escobar Azor, A. Greco,                   |
 |  H. Helal, Q. O. Hill, L. P. Lee, J.-H. Li,                   |
 |  T. Li, E. B. Linscott, G. Moynihan, D. D. O`Regan,           |
 |  O. K. Okan, E. Parkinson, M. J. S. Phipps,                   |
 |  C. J. Pickard, J. C. A. Prentice, M. I. J. Probert,          |
 |  L. E. Ratcliff, M. Robinson, A. Ruiz Serrano,                |
 |  M. dos Santos Dias, J. S. Spencer, E. W. Tait,               |
 |  G. Teobaldi, D. Turban, V. Vitale, K. A. Wilkinson,          |
 |  C. Weber, J. C. Womack, Chengcheng Xiao, N. Yeung,           |
 |  and T. J. Zuehlsdorff.                                       |
 |                                                               |
 |                                   Copyright (c) 2004-2025     |
 |                                                               |
 |  Please cite:                                                 |
 |  "The ONETEP linear-scaling density functional theory program"|
 |   J. Chem. Phys. 152(17) 174111 (2020)                        |
 |                                                               |
 |          in all publications arising from your use of ONETEP. |
 |                                                               |
 +---------------------------------------------------------------+
 |                                                               |
 |   ONETEP is based on developments described in the following  |
 |   publications:                                               |
 |                                                               |
 |  "Nonorthogonal generalized Wannier function pseudopotential  |
 |   plane-wave method".                                         |
 |   C.-K. Skylaris, A. A. Mostofi, P. D. Haynes, O. Dieguez,    |
 |   M. C. Payne.                                                |
 |   Phys. Rev. B 66 035119 (2002).                              |
 |                                                               |
 |  "Preconditioned iterative minimization for linear-scaling    |
 |   electronic structure calculations".                         |
 |   A. A. Mostofi, P. D. Haynes, C.-K. Skylaris, M. C. Payne.   |
 |   J. Chem. Phys. 119(17), pp.8842-8848 (2003).                |
 |                                                               |
 |  "Total-energy calculations on a real space grid with         |
 |   localized functions and a plane-wave basis".                |
 |   A. A. Mostofi, C.-K. Skylaris, P. D. Haynes, M. C. Payne.   |
 |   Comput. Phys. Commun. 147, pp.788-802 (2002).               |
 |                                                               |
 |  "Accurate kinetic energy evaluation in electronic structure  |
 |   calculations with localized functions on real space grids"  |
 |   C.-K. Skylaris, A. A. Mostofi, P. D. Haynes, C. J. Pickard, |
 |   M. C. Payne.                                                |
 |   Comput. Phys. Commun. 140, pp.315-322 (2001).               |
 |                                                               |
 |  "Accurate ionic forces and geometry optimization in linear-  |
 |   scaling density-functional theory with local orbitals"      |
 |   N. D. M. Hine, M. Robinson, P. D. Haynes, C.-K. Skylaris,   |
 |   M. C. Payne, and A. A. Mostofi.                             |
 |   Phys. Rev. B 83 195102 (2011).                              |
 |                                                               |
 +---------------------------------------------------------------+

Job started: 28-06-2025 12:10 (+0100)
 
Reading parameters from file "Fe_EtOH_3_LowSpin_NGWFSP.dat" ...... done

If your calculation crashes here, before "Checking processes and threads..."
is displayed, then your stack size is insufficient.
If so, use "ulimit -s unlimited" at runtime.
You can disable this check with "check_stack_size F".

Checking processes and threads...
   Determining the default number of threads...
      No default threads set at compilation time: defaulting to 1.
      OpenMP library call suggests 8 threads.
      Hybrid MPI-OpenMP compilation detected.
      Number of MPI processes > 1.
      OMP_NUM_THREADS environment variable present and
      its value matches the one obtained from the OpenMP library call.
      Using this value as default.
      Default threads: 8
      Default applies to threads_max and threads_num_fftboxes.
      Settings in the input file override this default.
   ... done

   Running with 6 MPI processes.
   There are 6 MPI processes running on the same node as the root process.
   Each MPI process is using: 
               1 threads for simulation cell FFTs.
               1 threads for threaded FFT box operations.
               8 threads for loops over batched FFT box operations.
               8 threads in other parallel regions.
   MPI Interface: S1 (use mpi_f08) (-DMPI -DUSE_MPI_F08).
   MPI_ASYNC_PROTECTS_NONBLOCKING: Yes. MPI_SUBARRAYS_SUPPORTED: Yes.
   FFTW Interface: OMP-capable and MODERN. (-DUSE_MODERN_FFTW specified).
   GPU Interface: None.
   GPU FFT Backend: None.
... done

Basic input checks...... done

Reading geometry and species blocks from file "Fe_EtOH_3_LowSpin_NGWFSP.dat" ...
  <species_atomic_set> block not found: NGWF initialisation set to SOLVE
    
  Number of PPD points along a3 set to 1.  This is 
  the default value, it may have been provided also in the input file.
... done


--------------------------------------------------------------------------------
---------------------------------- INPUT FILE ----------------------------------
--------------------------------------------------------------------------------

charge : 3                                                                      
cutoff_energy : 800 eV                                                          
do_properties : T                                                               
edft : F                                                                        
fine_grid_scale : 4                                                             
forces_output_detail : VERBOSE                                                  
output_detail : VERBOSE                                                         
paw : T                                                                         
pseudo_path : ../../../                                                         
spin : 1                                                                        
task : SINGLEPOINT                                                              
write_denskern : T                                                              
write_forces : T                                                                
write_tightbox_ngwfs : T                                                        
xc_functional : pbe                                                             
ngwfs_spin_polarized : T                                                        
%BLOCK HUBBARD                                                                  
Fe 2 4.0 0 -10 0 0                                                              
%ENDBLOCK HUBBARD                                                               
%BLOCK LATTICE_CART                                                             
ang                                                                             
27.84119898       0.00000000       0.00000000                                   
0.00000000      27.95738238       0.00000000                                    
0.00000000       0.00000000      26.56600724                                    
%ENDBLOCK LATTICE_CART                                                          
%BLOCK POSITIONS_ABS                                                            
ang                                                                             
Fe    12.945725    13.008170    12.366393                                       
O    12.016493    14.602567    11.784556                                        
O    12.265510    12.331331    14.071551                                        
O    14.548123    12.065909    11.780545                                        
H    11.256164    14.501932    11.183947                                        
C    15.981783    12.205111    12.132576                                        
H    12.274563    12.898587    14.861918                                        
C    12.202572    16.058940    12.042923                                        
H    14.482036    11.468034    11.014263                                        
C    11.725453    11.003930    14.440015                                        
H    13.263265    16.187932    12.291435                                        
H    11.628468    16.261185    12.968459                                        
C    11.738304    16.908310    10.922970                                        
H    12.334266    16.765395    10.000000                                        
H    11.854586    17.957382    11.214479                                        
H    10.686539    16.744411    10.642585                                        
H    11.189566    10.633982    13.554300                                        
C    10.904431    11.023367    15.671873                                        
H    12.608650    10.343210    14.566201                                        
H    10.000000    11.653232    15.560438                                        
H    11.428134    11.402131    16.566007                                        
H    10.584391    10.000000    15.889363                                        
H    16.004830    12.349473    13.220805                                        
H    16.326072    13.154600    11.677085                                        
C    16.806215    11.071025    11.646291                                        
H    16.450258    10.103501    12.039806                                        
H    17.841199    11.252551    11.957586                                        
H    16.848393    10.956338    10.547116                                        
%ENDBLOCK POSITIONS_ABS                                                         
%BLOCK SPECIES                                                                  
C C 6 -1 10.0                                                                   
Fe Fe 26 -1 10.0                                                                
H H 1 -1 10.0                                                                   
O O 8 -1 10.0                                                                   
%ENDBLOCK SPECIES                                                               
%BLOCK SPECIES_POT                                                              
C C.PBE-paw.abinit                                                              
Fe Fe.PBE-paw.abinit                                                            
H H.PBE-paw.abinit                                                              
O O.PBE-paw.abinit                                                              
%ENDBLOCK SPECIES_POT                                                           

--------------------------------------------------------------------------------
-------------------------------- END INPUT FILE --------------------------------
--------------------------------------------------------------------------------


 
 ESDF WARNING(1): "charge" (esdf_physical) has no units. Assume "e".
<<<<<<<<<<<<<<<<<<<<<<<<<<<<<<<<< Full system >>>>>>>>>>>>>>>>>>>>>>>>>>>>>>>>>>
<<<<<<<<<<<<<<<<<<<<<<<<<<< PAW Dataset information >>>>>>>>>>>>>>>>>>>>>>>>>>>
File: Fe.PBE-paw.abinit; rc = 2.12 bohr; shape type =  2; rshape = 1.81 bohr;
  Atomic number: 26;  ionic charge: 16.000000
    Partial Wave 1: l = 0
    Partial Wave 2: l = 0
    Partial Wave 3: l = 1
    Partial Wave 4: l = 1
    Partial Wave 5: l = 2
    Partial Wave 6: l = 2
  Core charge supplied for Nonlinear Core Corrections
File: O.PBE-paw.abinit; rc = 1.41 bohr; shape type =  2; rshape = 1.20 bohr;
  Atomic number:  8;  ionic charge:  6.000000
    Partial Wave 1: l = 0
    Partial Wave 2: l = 0
    Partial Wave 3: l = 1
    Partial Wave 4: l = 1
  Core charge supplied for Nonlinear Core Corrections
File: H.PBE-paw.abinit; rc = 0.90 bohr; shape type =  2; rshape = 0.80 bohr;
  Atomic number:  1;  ionic charge:  1.000000
    Partial Wave 1: l = 0
    Partial Wave 2: l = 0
    Partial Wave 3: l = 1
File: C.PBE-paw.abinit; rc = 1.51 bohr; shape type =  2; rshape = 1.30 bohr;
  Atomic number:  6;  ionic charge:  4.000000
    Partial Wave 1: l = 0
    Partial Wave 2: l = 0
    Partial Wave 3: l = 1
    Partial Wave 4: l = 1
  Core charge supplied for Nonlinear Core Corrections
<<<<<<<<<<<<<<<<<<<<<<<<<<<<<<<<<<<<<<< >>>>>>>>>>>>>>>>>>>>>>>>>>>>>>>>>>>>>>>

-------------------------- Atom counting information ---------------------------
Symbol    Natoms    Nngwfs    Nprojs
  Fe         1        13        18
  O          3        12        24
  H         18        18        90
  C          6        24        48
.......   ......    ......    ......
Totals:     28        67       180
--------------------------------------------------------------------------------

=============================== PSINC grid sizes ===============================
                      Simulation cell:  105 x 105 x  99
                              FFT-box:  105 x 105 x  99
                                  PPD:    5 x   5 x   1
Grid space d1=  0.501068965054a0 (KE cutoff=  30.25582Eh = 823.30288eV)
Grid space d2=  0.503159963219a0 (KE cutoff=  30.00488Eh = 816.47424eV)
Grid space d3=  0.507095739121a0 (KE cutoff=  29.54092Eh = 803.84945eV)
================================================================================

********************* Fourier parallelisation information **********************
       Coarse grid (whole simulation cell) dimensions:    105   105    99
          Real-space ('12') slabs/proc (min max mean):     16    17    16
         Recip-space ('23') slabs/proc (min max mean):      8     9     8
********************************************************************************

********************* Fourier parallelisation information **********************
       Double grid (whole simulation cell) dimensions:    210   210   198
          Real-space ('12') slabs/proc (min max mean):     33    33    33
         Recip-space ('23') slabs/proc (min max mean):     17    18    17
********************************************************************************

********************* Fourier parallelisation information **********************
         Fine grid (whole simulation cell) dimensions:    420   420   396
          Real-space ('12') slabs/proc (min max mean):     66    66    66
         Recip-space ('23') slabs/proc (min max mean):     35    36    35
********************************************************************************

Atom SCF Calculation for C  : Z (AE atom) =   6 : Z (PS atom) =   4
Config String: 2s2.0 2p2.0
Orbitals (num,occ):  2     2.00 2.00
Orbitals   (num,l):  2        0    1
Real-space Grid (nr,dr,rmax): 1503    0.0066577896   10.0000000000
Spherical Bessel Basis (nsws,lmax,cutoff):   37    2  176.3967570603
Confining potential (l,width,scale):  0    3.0000000000  100.0000000000
Confining potential (l,width,scale):  1    3.0000000000  100.0000000000
  1         -5.4381308884   -1.2721298092    4.5135250045   -1.9381135692
  2         -5.3849331102   -1.3649505469    4.4159511708   -1.9005879768
  3         -5.3930021612   -1.3849430624    4.3947033354   -1.8924421815
  4         -5.4001802281   -1.3891927246    4.3902388137   -1.8907518289
  5         -5.4037205329   -1.3915457087    4.3877695258   -1.8898885469
  6         -5.4055416859   -1.3928069742    4.3864477540   -1.8894519912
  7         -5.4065002767   -1.3934742451    4.3857498837   -1.8892319620
  8         -5.4070074727   -1.3938267709    4.3853820092   -1.8891207968
  9         -5.4072763209   -1.3940130896    4.3851880206   -1.8890645345
 10         -5.4074189962   -1.3941116277    4.3850856600   -1.8890360408
 11         -5.4074947717   -1.3941637823    4.3850316039   -1.8890216105
 12         -5.4075350443   -1.3941914082    4.3850030336   -1.8890143059
 13         -5.4075564617   -1.3942060527    4.3849879208   -1.8890106114
 14         -5.4075678586   -1.3942138217    4.3849799198   -1.8890087446
 15         -5.4075739267   -1.3942179465    4.3849756804   -1.8890078024
 16         -5.4075771595   -1.3942201380    4.3849734321   -1.8890073276
 17         -5.4075788827   -1.3942213034    4.3849722389   -1.8890070886
 18         -5.4075798017   -1.3942219235    4.3849716050   -1.8890069685
 19         -5.4075802921   -1.3942222537    4.3849712680   -1.8890069082
 20         -5.4075805539   -1.3942224296    4.3849710888   -1.8890068781
 21         -5.4075806938   -1.3942225235    4.3849709933   -1.8890068630
 22         -5.4075807686   -1.3942225735    4.3849709424   -1.8890068555
Atom SCF converged after  22 iterations to a total energy of     -5.40758077

Atom SCF Calculation for Fe : Z (AE atom) =  26 : Z (PS atom) =  16
Config String: 3s2.0 3p6.0 3d6.0 4s2.0 4p0.0
Orbitals (num,occ):  5     2.00 6.00 6.00 2.00 0.00
Orbitals   (num,l):  5        0    1    2    0    1
Real-space Grid (nr,dr,rmax): 1503    0.0066577896   10.0000000000
Spherical Bessel Basis (nsws,lmax,cutoff):   37    4  176.3967570603
Confining potential (l,width,scale):  0    3.0000000000  100.0000000000
Confining potential (l,width,scale):  1    3.0000000000  100.0000000000
Confining potential (l,width,scale):  2    3.0000000000  100.0000000000
  1       -111.4005172118  -52.5575611559   72.2164000725   -4.0901868950
  2       -116.6635475262  -20.5601904919   91.7007084249   -2.2962490369
  3       -121.6156136875  -23.2753453277   92.4544705195   -2.7706732816
  4       -123.0066153699  -21.4164712440   94.7136519632   -2.9394413820
  5       -123.8168122141  -22.6370400734   94.1384349420   -3.0798102909
  6       -123.9055073486  -21.7222843370   94.9342614757   -3.0846520419
  7       -124.0956886241  -22.4138747628   94.4617720360   -3.1224050559
  8       -124.0492758687  -21.8887017510   94.8692044073   -3.1096545890
  9       -124.1222324005  -22.2877514631   94.5777385101   -3.1254730624
 10       -124.0894611846  -22.0431086758   94.7620026738   -3.1177312036
 11       -124.1066906466  -22.1417456915   94.6895757605   -3.1215019185
 12       -124.1027421480  -22.1090398813   94.7144439268   -3.1205307857
 13       -124.1039552528  -22.1131641559   94.7116547863   -3.1207645739
 14       -124.1041718268  -22.1127261003   94.7121170471   -3.1207931979
 15       -124.1043563153  -22.1126782042   94.7122440208   -3.1208211382
 16       -124.1044853288  -22.1126702816   94.7123114748   -3.1208409484
 17       -124.1045734258  -22.1126674103   94.7123551926   -3.1208545095
 18       -124.1046334193  -22.1126657134   94.7123845864   -3.1208637603
 19       -124.1046742816  -22.1126645462   94.7124045128   -3.1208700757
 20       -124.1047021281  -22.1126636961   94.7124180731   -3.1208743926
 21       -124.1047211147  -22.1126630559   94.7124273290   -3.1208773473
 22       -124.1047340666  -22.1126625637   94.7124336643   -3.1208793718
 23       -124.1047429056  -22.1126621807   94.7124380116   -3.1208807606
 24       -124.1047489402  -22.1126618812   94.7124410017   -3.1208817142
 25       -124.1047530616  -22.1126616468   94.7124430628   -3.1208823696
 26       -124.1047558771  -22.1126614637   94.7124444863   -3.1208828204
 27       -124.1047578011  -22.1126613212   94.7124454714   -3.1208831306
 28       -124.1047591161  -22.1126612109   94.7124461541   -3.1208833444
 29       -124.1047600152  -22.1126611259   94.7124466281   -3.1208834917
 30       -124.1047606300  -22.1126610607   94.7124469575   -3.1208835933
 31       -124.1047610504  -22.1126610110   94.7124471869   -3.1208836634
 32       -124.1047613380  -22.1126609733   94.7124473467   -3.1208837118
 33       -124.1047615347  -22.1126609447   94.7124474583   -3.1208837453
 34       -124.1047616693  -22.1126609232   94.7124475361   -3.1208837684
 35       -124.1047617614  -22.1126609071   94.7124475906   -3.1208837843
Atom SCF converged after  35 iterations to a total energy of   -124.10476176

Atom SCF Calculation for H  : Z (AE atom) =   1 : Z (PS atom) =   1
Config String: 1s1.0
Orbitals (num,occ):  1     1.00
Orbitals   (num,l):  1        0
Real-space Grid (nr,dr,rmax): 1503    0.0066577896   10.0000000000
Spherical Bessel Basis (nsws,lmax,cutoff):   37    2  176.3967570603
Confining potential (l,width,scale):  0    3.0000000000  100.0000000000
  1         -0.3348525927   -0.2401819449    0.2820953128   -0.2388448411
  2         -0.4038948821   -0.2405504229    0.2866889240   -0.2416217444
  3         -0.4360732773   -0.2390089543    0.2890729861   -0.2443653791
  4         -0.4497314704   -0.2383264046    0.2899315599   -0.2456060208
  5         -0.4551901081   -0.2381357631    0.2901452306   -0.2460489407
  6         -0.4573594294   -0.2381000300    0.2901742710   -0.2461947705
  7         -0.4582326910   -0.2381004501    0.2901659451   -0.2462415077
  8         -0.4585900702   -0.2381055523    0.2901559649   -0.2462564278
  9         -0.4587384807   -0.2381092319    0.2901497571   -0.2462612174
 10         -0.4588008132   -0.2381112609    0.2901465144   -0.2462627659
 11         -0.4588272086   -0.2381122698    0.2901449456   -0.2462632682
 12         -0.4588384507   -0.2381127465    0.2901442163   -0.2462634302
 13         -0.4588432580   -0.2381129655    0.2901438848   -0.2462634814
 14         -0.4588453195   -0.2381130645    0.2901437362   -0.2462634968
 15         -0.4588462053   -0.2381131088    0.2901436700   -0.2462635011
 16         -0.4588465865   -0.2381131284    0.2901436407   -0.2462635020
 17         -0.4588467508   -0.2381131372    0.2901436278   -0.2462635020
 18         -0.4588468216   -0.2381131410    0.2901436222   -0.2462635019
Atom SCF converged after  18 iterations to a total energy of     -0.45884682

Atom SCF Calculation for O  : Z (AE atom) =   8 : Z (PS atom) =   6
Config String: 2s2.0 2p4.0
Orbitals (num,occ):  2     2.00 4.00
Orbitals   (num,l):  2        0    1
Real-space Grid (nr,dr,rmax): 1503    0.0066577896   10.0000000000
Spherical Bessel Basis (nsws,lmax,cutoff):   37    2  176.3967570603
Confining potential (l,width,scale):  0    3.0000000000  100.0000000000
Confining potential (l,width,scale):  1    3.0000000000  100.0000000000
  1         -8.3209332552   -7.4828484739   10.1554312602   -2.1270270195
  2        -15.1405599232   -3.0474882742   13.6590820486   -2.5134754209
  3        -15.5174094640   -3.1101891961   13.6243211040   -2.6472956001
  4        -15.7606118231   -3.0805775314   13.6668776248   -2.7100307789
  5        -15.8308896490   -3.0881936416   13.6633910567   -2.7338682066
  6        -15.8678540393   -3.0862312957   13.6673103078   -2.7443897972
  7        -15.8801393942   -3.0873360689   13.6669183555   -2.7485230919
  8        -15.8859601688   -3.0872977830   13.6672813272   -2.7502957173
  9        -15.8880580832   -3.0874730763   13.6672320183   -2.7510066526
 10        -15.8889924584   -3.0874981416   13.6672623218   -2.7513066537
 11        -15.8893459980   -3.0875277929   13.6672548500   -2.7514284384
 12        -15.8894977936   -3.0875355600   13.6672566096   -2.7514793465
 13        -15.8895569380   -3.0875407304   13.6672553199   -2.7515001537
 14        -15.8895817884   -3.0875424467   13.6672552475   -2.7515088021
 15        -15.8895916441   -3.0875433561   13.6672550136   -2.7515123499
 16        -15.8895957327   -3.0875436929   13.6672549605   -2.7515138192
 17        -15.8895973717   -3.0875438525   13.6672549179   -2.7515144231
 18        -15.8895980466   -3.0875439149   13.6672549044   -2.7515146726
 19        -15.8895983189   -3.0875439428   13.6672548968   -2.7515147752
 20        -15.8895984306   -3.0875439540   13.6672548940   -2.7515148175
 21        -15.8895984758   -3.0875439588   13.6672548927   -2.7515148349
Atom SCF converged after  21 iterations to a total energy of    -15.88959848

Atom SCF Calculation for C  : Z (AE atom) =   6 : Z (PS atom) =   4
Config String: 2s2.0 2p2.0
Orbitals (num,occ):  2     2.00 2.00
Orbitals   (num,l):  2        0    1
Real-space Grid (nr,dr,rmax): 1503    0.0066577896   10.0000000000
Spherical Bessel Basis (nsws,lmax,cutoff):   37    2  176.3967570603
Confining potential (l,width,scale):  0    3.0000000000  100.0000000000
Confining potential (l,width,scale):  1    3.0000000000  100.0000000000
  1         -5.4381308884   -1.2721298092    4.5135250045   -1.9381135692
  2         -5.3849331102   -1.3649505469    4.4159511708   -1.9005879768
  3         -5.3930021612   -1.3849430624    4.3947033354   -1.8924421815
  4         -5.4001802281   -1.3891927246    4.3902388137   -1.8907518289
  5         -5.4037205329   -1.3915457087    4.3877695258   -1.8898885469
  6         -5.4055416859   -1.3928069742    4.3864477540   -1.8894519912
  7         -5.4065002767   -1.3934742451    4.3857498837   -1.8892319620
  8         -5.4070074727   -1.3938267709    4.3853820092   -1.8891207968
  9         -5.4072763209   -1.3940130896    4.3851880206   -1.8890645345
 10         -5.4074189962   -1.3941116277    4.3850856600   -1.8890360408
 11         -5.4074947717   -1.3941637823    4.3850316039   -1.8890216105
 12         -5.4075350443   -1.3941914082    4.3850030336   -1.8890143059
 13         -5.4075564617   -1.3942060527    4.3849879208   -1.8890106114
 14         -5.4075678586   -1.3942138217    4.3849799198   -1.8890087446
 15         -5.4075739267   -1.3942179465    4.3849756804   -1.8890078024
 16         -5.4075771595   -1.3942201380    4.3849734321   -1.8890073276
 17         -5.4075788827   -1.3942213034    4.3849722389   -1.8890070886
 18         -5.4075798017   -1.3942219235    4.3849716050   -1.8890069685
 19         -5.4075802921   -1.3942222537    4.3849712680   -1.8890069082
 20         -5.4075805539   -1.3942224296    4.3849710888   -1.8890068781
 21         -5.4075806938   -1.3942225235    4.3849709933   -1.8890068630
 22         -5.4075807686   -1.3942225735    4.3849709424   -1.8890068555
Atom SCF converged after  22 iterations to a total energy of     -5.40758077

Atom SCF Calculation for Fe : Z (AE atom) =  26 : Z (PS atom) =  16
Config String: 3s2.0 3p6.0 3d6.0 4s2.0 4p0.0
Orbitals (num,occ):  5     2.00 6.00 6.00 2.00 0.00
Orbitals   (num,l):  5        0    1    2    0    1
Real-space Grid (nr,dr,rmax): 1503    0.0066577896   10.0000000000
Spherical Bessel Basis (nsws,lmax,cutoff):   37    4  176.3967570603
Confining potential (l,width,scale):  0    3.0000000000  100.0000000000
Confining potential (l,width,scale):  1    3.0000000000  100.0000000000
Confining potential (l,width,scale):  2    3.0000000000  100.0000000000
  1       -111.4005172118  -52.5575611559   72.2164000725   -4.0901868950
  2       -116.6635475262  -20.5601904919   91.7007084249   -2.2962490369
  3       -121.6156136875  -23.2753453277   92.4544705195   -2.7706732816
  4       -123.0066153699  -21.4164712440   94.7136519632   -2.9394413820
  5       -123.8168122141  -22.6370400734   94.1384349420   -3.0798102909
  6       -123.9055073486  -21.7222843370   94.9342614757   -3.0846520419
  7       -124.0956886241  -22.4138747628   94.4617720360   -3.1224050559
  8       -124.0492758687  -21.8887017510   94.8692044073   -3.1096545890
  9       -124.1222324005  -22.2877514631   94.5777385101   -3.1254730624
 10       -124.0894611846  -22.0431086758   94.7620026738   -3.1177312036
 11       -124.1066906466  -22.1417456915   94.6895757605   -3.1215019185
 12       -124.1027421480  -22.1090398813   94.7144439268   -3.1205307857
 13       -124.1039552528  -22.1131641559   94.7116547863   -3.1207645739
 14       -124.1041718268  -22.1127261003   94.7121170471   -3.1207931979
 15       -124.1043563153  -22.1126782042   94.7122440208   -3.1208211382
 16       -124.1044853288  -22.1126702816   94.7123114748   -3.1208409484
 17       -124.1045734258  -22.1126674103   94.7123551926   -3.1208545095
 18       -124.1046334193  -22.1126657134   94.7123845864   -3.1208637603
 19       -124.1046742816  -22.1126645462   94.7124045128   -3.1208700757
 20       -124.1047021281  -22.1126636961   94.7124180731   -3.1208743926
 21       -124.1047211147  -22.1126630559   94.7124273290   -3.1208773473
 22       -124.1047340666  -22.1126625637   94.7124336643   -3.1208793718
 23       -124.1047429056  -22.1126621807   94.7124380116   -3.1208807606
 24       -124.1047489402  -22.1126618812   94.7124410017   -3.1208817142
 25       -124.1047530616  -22.1126616468   94.7124430628   -3.1208823696
 26       -124.1047558771  -22.1126614637   94.7124444863   -3.1208828204
 27       -124.1047578011  -22.1126613212   94.7124454714   -3.1208831306
 28       -124.1047591161  -22.1126612109   94.7124461541   -3.1208833444
 29       -124.1047600152  -22.1126611259   94.7124466281   -3.1208834917
 30       -124.1047606300  -22.1126610607   94.7124469575   -3.1208835933
 31       -124.1047610504  -22.1126610110   94.7124471869   -3.1208836634
 32       -124.1047613380  -22.1126609733   94.7124473467   -3.1208837118
 33       -124.1047615347  -22.1126609447   94.7124474583   -3.1208837453
 34       -124.1047616693  -22.1126609232   94.7124475361   -3.1208837684
 35       -124.1047617614  -22.1126609071   94.7124475906   -3.1208837843
Atom SCF converged after  35 iterations to a total energy of   -124.10476176

Atom SCF Calculation for H  : Z (AE atom) =   1 : Z (PS atom) =   1
Config String: 1s1.0
Orbitals (num,occ):  1     1.00
Orbitals   (num,l):  1        0
Real-space Grid (nr,dr,rmax): 1503    0.0066577896   10.0000000000
Spherical Bessel Basis (nsws,lmax,cutoff):   37    2  176.3967570603
Confining potential (l,width,scale):  0    3.0000000000  100.0000000000
  1         -0.3348525927   -0.2401819449    0.2820953128   -0.2388448411
  2         -0.4038948821   -0.2405504229    0.2866889240   -0.2416217444
  3         -0.4360732773   -0.2390089543    0.2890729861   -0.2443653791
  4         -0.4497314704   -0.2383264046    0.2899315599   -0.2456060208
  5         -0.4551901081   -0.2381357631    0.2901452306   -0.2460489407
  6         -0.4573594294   -0.2381000300    0.2901742710   -0.2461947705
  7         -0.4582326910   -0.2381004501    0.2901659451   -0.2462415077
  8         -0.4585900702   -0.2381055523    0.2901559649   -0.2462564278
  9         -0.4587384807   -0.2381092319    0.2901497571   -0.2462612174
 10         -0.4588008132   -0.2381112609    0.2901465144   -0.2462627659
 11         -0.4588272086   -0.2381122698    0.2901449456   -0.2462632682
 12         -0.4588384507   -0.2381127465    0.2901442163   -0.2462634302
 13         -0.4588432580   -0.2381129655    0.2901438848   -0.2462634814
 14         -0.4588453195   -0.2381130645    0.2901437362   -0.2462634968
 15         -0.4588462053   -0.2381131088    0.2901436700   -0.2462635011
 16         -0.4588465865   -0.2381131284    0.2901436407   -0.2462635020
 17         -0.4588467508   -0.2381131372    0.2901436278   -0.2462635020
 18         -0.4588468216   -0.2381131410    0.2901436222   -0.2462635019
Atom SCF converged after  18 iterations to a total energy of     -0.45884682

Atom SCF Calculation for O  : Z (AE atom) =   8 : Z (PS atom) =   6
Config String: 2s2.0 2p4.0
Orbitals (num,occ):  2     2.00 4.00
Orbitals   (num,l):  2        0    1
Real-space Grid (nr,dr,rmax): 1503    0.0066577896   10.0000000000
Spherical Bessel Basis (nsws,lmax,cutoff):   37    2  176.3967570603
Confining potential (l,width,scale):  0    3.0000000000  100.0000000000
Confining potential (l,width,scale):  1    3.0000000000  100.0000000000
  1         -8.3209332552   -7.4828484739   10.1554312602   -2.1270270195
  2        -15.1405599232   -3.0474882742   13.6590820486   -2.5134754209
  3        -15.5174094640   -3.1101891961   13.6243211040   -2.6472956001
  4        -15.7606118231   -3.0805775314   13.6668776248   -2.7100307789
  5        -15.8308896490   -3.0881936416   13.6633910567   -2.7338682066
  6        -15.8678540393   -3.0862312957   13.6673103078   -2.7443897972
  7        -15.8801393942   -3.0873360689   13.6669183555   -2.7485230919
  8        -15.8859601688   -3.0872977830   13.6672813272   -2.7502957173
  9        -15.8880580832   -3.0874730763   13.6672320183   -2.7510066526
 10        -15.8889924584   -3.0874981416   13.6672623218   -2.7513066537
 11        -15.8893459980   -3.0875277929   13.6672548500   -2.7514284384
 12        -15.8894977936   -3.0875355600   13.6672566096   -2.7514793465
 13        -15.8895569380   -3.0875407304   13.6672553199   -2.7515001537
 14        -15.8895817884   -3.0875424467   13.6672552475   -2.7515088021
 15        -15.8895916441   -3.0875433561   13.6672550136   -2.7515123499
 16        -15.8895957327   -3.0875436929   13.6672549605   -2.7515138192
 17        -15.8895973717   -3.0875438525   13.6672549179   -2.7515144231
 18        -15.8895980466   -3.0875439149   13.6672549044   -2.7515146726
 19        -15.8895983189   -3.0875439428   13.6672548968   -2.7515147752
 20        -15.8895984306   -3.0875439540   13.6672548940   -2.7515148175
 21        -15.8895984758   -3.0875439588   13.6672548927   -2.7515148349
Atom SCF converged after  21 iterations to a total energy of    -15.88959848

BC: Task: SINGLEPOINT
BC: +++++++++++++++ Summary of boundary conditions ++++++++++++++
BC: |       Component       |     Keyword     |   Periodicity   |
BC: |                       |                 |     X  Y  Z [1] |
BC: |-----------------------------------------------------------|
BC: | Ion-ion               | ion_ion_bc [2]  |     P  P  P     |
BC: | Local pseudopotential | pspot_bc [3]    |     P  P  P     |
BC: +++++++++++++++++++++++++++++++++++++++++++++++++++++++++++++
BC: P: Periodic, O: Open.
BC: [1] Not strictly along X, Y, Z but rather along lattice vectors A1, A2, A3.
BC: [2] Also affected by: pbc_correction_cutoff, cutoff_coulomb_type,
BC:     is_smeared_ion_rep, is_implicit_solvent, openbc_ion_ion.
BC: [3] Also affected by: is_smeared_ion_rep, is_implicit_solvent, openbc_pspot.

Determining parallel strategy ...
... using space-filling curve
... NGWF load balancing: max     13;  min     10;  average     11
... Projector load balancing: max     38;  min     18;  average     30
... Hubbard Projector load balancing: max      5;  min      0;  average      1
... done
Calculating Ewald energy ...
              Ewald: real-space energy =          276.960350
        Ewald: reciprocal-space energy =           43.844418
         Ewald: (sum_charge)**2 energy =           18.336174
         Ewald: (sum_charge**2) energy =           16.058998
                          Ewald energy =          286.409595
Basis initialisation ...
... NGWF spheres initialised
... Projector spheres initialised
... Hubbard Projector spheres initialised
... NGWF tight boxes initialised
... Projector tight boxes initialised
... Tight-boxes gathered
... NGWF basis size (local,global):        186743       968481
... PAW projector initialisation
... done

============================= Charge Augmentation ==============================
                           Aug box size:   35 x  35 x  35
================================================================================
... Hubbard projector initialisation

========================== Sparse matrix information ===========================
                        Overlap matrix filling: 100.00%
                        Density kernel filling: 100.00% (known to be dense)
              NGWF-Proj overlap matrix filling:  74.25%
                    Aug Overlap matrix filling: 100.00%
      NGWF-Hubbard Proj overlap matrix filling: 100.00%
                             VW matrix filling: 100.00%
                    Hamiltonian matrix filling: 100.00%
                  NGWF diagonal matrix filling:   7.37%
                             KS matrix filling: 100.00% 
                           KSKS matrix filling: 100.00% 
================================================================================

Sparse matrix initialisation ...
 done
NGWF initialisation ... done
============ Calculation of NGWF S^-1 using Hotelling algorithm ================ 
     Iteration  |  Spin  |  Frobenius norm and Maximum abs value (of I-S*S_n^-1)
         1           1      0.78237714E+01     0.97138740E+00
         1           2      0.78237714E+01     0.97138740E+00
         2           1      0.75445819E+01     0.94361279E+00
         2           2      0.75445819E+01     0.94361279E+00
         3           1      0.71300547E+01     0.89047345E+00
         3           2      0.71300547E+01     0.89047345E+00
         4           1      0.65810157E+01     0.79316234E+00
         4           2      0.65810157E+01     0.79316234E+00
         5           1      0.59241827E+01     0.69695021E+00
         5           2      0.59241827E+01     0.69695021E+00
         6           1      0.52350596E+01     0.66657575E+00
         6           2      0.52350596E+01     0.66657575E+00
         7           1      0.46179754E+01     0.63361237E+00
         7           2      0.46179754E+01     0.63361237E+00
         8           1      0.40004052E+01     0.58017559E+00
         8           2      0.40004052E+01     0.58017559E+00
         9           1      0.31756445E+01     0.49122501E+00
         9           2      0.31756445E+01     0.49122501E+00
        10           1      0.21114630E+01     0.35486372E+00
        10           2      0.21114630E+01     0.35486372E+00
        11           1      0.10126760E+01     0.18851743E+00
        11           2      0.10126760E+01     0.18851743E+00
        12           1      0.27367242E+00     0.56174159E-01
        12           2      0.27367242E+00     0.56174159E-01
        13           1      0.28343898E-01     0.58404965E-02
        13           2      0.28343898E-01     0.58404965E-02
        14           1      0.43036739E-03     0.83516525E-04
        14           2      0.43036739E-03     0.83516525E-04
        15           1      0.11231779E-06     0.22229683E-07
        15           2      0.11231779E-06     0.22229683E-07
        16           1      0.10715785E-13     0.23314684E-14
        16           2      0.10715785E-13     0.23314684E-14
================================================================================
 done

################################################################################
DFT+U information on atom      1 of Hubbard species Fe  
################################################################################
Using the on-atom contravariant metric, the NGWF hydrogenic character
| < \phi | \psi > |**2 matrix of Hubbard site      1 is 
  m_l =   -2          -1           0           1           2         SUM
  0.00000000 -0.00000000 -0.00000000 -0.00000000 -0.00000000 -0.00000000
  0.00000000  0.00000000 -0.00000001 -0.00000000 -0.00000002 -0.00000002
 -0.00000000  0.00000000 -0.00000001  0.00000000 -0.00000000 -0.00000001
  0.00000000 -0.00000000 -0.00000001  0.00000000 -0.00000002 -0.00000003
  0.51020520  0.00000000  0.00000000  0.00000000  0.00000000  0.51020520
  0.00000000  0.51021885 -0.00000000  0.00000000 -0.00000000  0.51021885
  0.00000000 -0.00000000  0.51326582 -0.00000000 -0.00000000  0.51326582
  0.00000000  0.00000000 -0.00000000  0.51020277 -0.00000000  0.51020277
  0.00000000 -0.00000000 -0.00000000 -0.00000000  0.51312254  0.51312254
 -0.00000000  0.00000000 -0.00000000  0.00000000  0.00000000 -0.00000000
  0.00000000 -0.00000000  0.00000000  0.00000000  0.00000000  0.00000000
  0.00000000  0.00000000 -0.00000001  0.00000000  0.00000000 -0.00000001
  0.00000000  0.00000000  0.00000000 -0.00000000  0.00000000  0.00000000
Total hydrogenic projection of NGWFs on this atom             2.55701511
################################################################################


################################################################################
Using the subspace contravariant metric, the NGWF hydrogenic character
| < \phi | \psi > |**2 matrix of Hubbard site      1 is 
  m_l =   -2          -1           0           1           2         SUM
  0.51020503 -0.00000000  0.00000000  0.00000000  0.00000000  0.51020503
 -0.00000000  0.51021872 -0.00000000  0.00000000 -0.00000000  0.51021872
  0.00000000 -0.00000000  0.51326535 -0.00000000 -0.00000000  0.51326535
  0.00000000  0.00000000 -0.00000000  0.51020264 -0.00000000  0.51020264
  0.00000000 -0.00000000 -0.00000000 -0.00000000  0.51312210  0.51312210
Total hydrogenic projection of NGWFs on this correlated site  2.55701383
################################################################################

Calculating core density ...
================================= Core Density =================================
               Core den box size:   39 x  39 x  39
================================================================================
 ... done
Density renormalisation, spin  1 ...
Target Charge:    37.000000000000 ; Input Charge:    38.000446065218
Density renormalisation, spin  2 ...
Target Charge:    36.000000000000 ; Input Charge:    38.000446065218
Density kernel initialisation
 
======= Optimisation of K by Palser-Manolopoulos canonical purification ======== 
         Iteration  |  Band structure energy |    c_n   
               1         -36.12803760036475    0.5386688
               2         -37.31048933037872    0.5322301
               3         -38.64916698438713    0.5241566
               4         -40.12337352814649    0.5169315
               5         -41.82700375189699    0.5115253
               6         -43.72977806374163    0.5142187
               7         -45.48678854656032    0.5420158
               8         -46.61760464331964    0.6075879
               9         -47.08456422383594    0.6898049
              10         -47.24935715130867    0.7636737
              11         -47.30603163511610    0.8017253
              12         -47.32841599043473    0.8063217
              13         -47.34135346885381    0.7893683
              14         -47.35337012246245    0.7653510
              15         -47.36537917751351    0.7353086
              16         -47.37716164428198    0.6972811
              17         -47.38838593741271    0.6477581
              18         -47.39860517045109    0.5794350
              19         -47.40715567093058    0.4788077
              20         -47.41228046703801    0.3645623
              21         -47.41287479764505    0.3541365
              22         -47.41307967467170    0.3681633
              23         -47.41333255851336    0.3906540
              24         -47.41363754746683    0.4226208
              25         -47.41396762693718    0.4599065
              26         -47.41425512695025    0.4889905
              27         -47.41441599001350    0.4991870
              28         -47.41445325347033    0.4999958
              29         -47.41445489327923    0.5000000
              30         -47.41445489633005    0.5000000
Termination criterion satisfied: band energy change below threshold.
Final occupancy bounds: [    0.00000000000003:    1.00000000000000]
Closest occupancy to 0.5:     1.00000000000000
================================================================================
 
======= Optimisation of K by Palser-Manolopoulos canonical purification ======== 
         Iteration  |  Band structure energy |    c_n   
               1         -35.45436190850948    0.5238481
               2         -36.72609727351616    0.5171900
               3         -38.15739392411164    0.5092076
               4         -39.71449143780303    0.5035580
               5         -41.50464603882043    0.5021228
               6         -43.44113790440419    0.5147142
               7         -45.08757792959552    0.5603517
               8         -46.01138172343075    0.6377941
               9         -46.35403101432276    0.7089518
              10         -46.47185511555863    0.7455885
              11         -46.51814399898625    0.7431087
              12         -46.54652568811133    0.7164254
              13         -46.57210813395778    0.6777312
              14         -46.59686795387795    0.6294936
              15         -46.61943860641564    0.5749647
              16         -46.63768754524190    0.5276020
              17         -46.65016163804334    0.5052684
              18         -46.65750895165086    0.5023439
              19         -46.66052014493435    0.5011239
              20         -46.66100881268686    0.5000594
              21         -46.66102551890587    0.5000000
              22         -46.66102554832297    0.5011557
              23         -46.66102554832311    0.5011557
Termination criterion satisfied: band energy change below threshold.
Final occupancy bounds: [    0.00000000000000:    1.00000000000000]
Closest occupancy to 0.5:     1.00000000000000
================================================================================

Writing density kernel to file "Fe_EtOH_3_LowSpin_NGWFSP.dkn" ... done

>>> Optimising kernel for current NGWFs:
   Initial electron number for spin 1:      37.00000000
   Initial electron number for spin 2:      36.00000000
     Final electron number for spin 1:      37.00000000
     Final electron number for spin 2:      36.00000000

=================== Penalty functional idempotency correction ==================
 RMS occupancy error at iteration   1:  0.000000 (step -0.5000 Ne1=     37.0000)
                                                               Ne2=     36.0000
            Final RMS occupancy error   :  0.000000 (Ne1=     37.0000)
                                                     Ne2=     36.0000
            Final occupancy bounds spin 1: [  0.000,  1.000]
            Final occupancy bounds spin 2: [  0.000,  1.000]
================================================================================

................................................................................
<<<<<<<<<<<<<< LNV (Original version) density kernel optimisation >>>>>>>>>>>>>>
~~~~~~~~~~~~~~~~~~~~~~~~~~~~~~~~~~~~~~~~~~~~~~~~~~~~~~~~~~~~~~~~~~~~~~~~~~~~~~~~
   iter  |      energy (Eh)       | rms gradient |  commutator  |   dE (Eh)

################################################################################
DFT+U information on atom      1 of Hubbard species Fe  
################################################################################
Occupancy matrix of Hubbard site      1 and spin      1 is 
  m_l =   -2          -1           0           1           2
  0.99984585  0.00002443  0.00035056  0.00000815  0.00008547
  0.00002446  0.99959239 -0.00028328  0.00037734  0.00025066
  0.00035038 -0.00028317  0.99968925  0.00006032 -0.00005754
  0.00000813  0.00037736  0.00006034  0.99960863 -0.00030345
  0.00008543  0.00025059 -0.00005758 -0.00030337  0.99973861
################################################################################
Occupancy matrix of Hubbard site      1 and spin      2 is 
  m_l =   -2          -1           0           1           2
  0.99982003  0.00000960  0.00036253  0.00004892  0.00006225
  0.00000962  0.99958387 -0.00027640  0.00040077  0.00023731
  0.00036234 -0.00027629  0.99968371  0.00004143 -0.00004678
  0.00004890  0.00040079  0.00004144  0.99954425 -0.00026678
  0.00006221  0.00023725 -0.00004681 -0.00026670  0.99971773
################################################################################
Total occupancy of Hubbard site      1 is         9.99682432 e
Local magnetic moment of Hubbard site      1 is   0.00012515 mu_B
DFT+U energy of Hubbard site      1 is            0.00023318 Ha
################################################################################

      ideal mu1:      -0.054433016125
      ideal mu2:      -0.037238186850
             Q0:        -208.436300394394
             G0:     -11.579914873182
   RMS gradient:       0.071827851902
    Initial Ne1:      37.00000000
    Initial Ne2:      36.00000000
      Final Ne1:      37.00000000
      Final Ne2:      36.00000000

=================== Penalty functional idempotency correction ==================
 RMS occupancy error at iteration   1:  0.002887 (step -0.4915 Ne1=     37.0000)
                                                               Ne2=     36.0000
 RMS occupancy error at iteration   2:  0.000015 (step -0.5000 Ne1=     37.0000)
                                                               Ne2=     36.0000
            Final RMS occupancy error   :  0.000000 (Ne1=     37.0000)
                                                     Ne2=     36.0000
            Final occupancy bounds spin 1: [  0.000,  1.000]
            Final occupancy bounds spin 2: [  0.000,  1.000]
================================================================================

    1        -2.084363003944E+02     7.1828E-02     4.6632E-02

################################################################################
DFT+U information on atom      1 of Hubbard species Fe  
################################################################################
Occupancy matrix of Hubbard site      1 and spin      1 is 
  m_l =   -2          -1           0           1           2
  0.99706108 -0.00070197 -0.00018394 -0.00055354  0.00011485
 -0.00070184  0.99769079 -0.00035838  0.00066029 -0.00009993
 -0.00018400 -0.00035828  0.99867229  0.00053774 -0.00029105
 -0.00055356  0.00066034  0.00053805  0.99779336 -0.00002605
  0.00011484 -0.00009996 -0.00029116 -0.00002603  0.99877001
################################################################################
Occupancy matrix of Hubbard site      1 and spin      2 is 
  m_l =   -2          -1           0           1           2
  0.99703499 -0.00072633 -0.00016812 -0.00048028  0.00007429
 -0.00072620  0.99766807 -0.00034376  0.00072900 -0.00013795
 -0.00016819 -0.00034368  0.99866333  0.00049320 -0.00026652
 -0.00048030  0.00072905  0.00049349  0.99758681  0.00008838
  0.00007429 -0.00013797 -0.00026662  0.00008839  0.99870663
################################################################################
Total occupancy of Hubbard site      1 is         9.97964736 e
Local magnetic moment of Hubbard site      1 is   0.00032770 mu_B
DFT+U energy of Hubbard site      1 is            0.00149201 Ha
################################################################################

      ideal mu1:      -0.161791004258
      ideal mu2:      -0.147569963053
             Q0:        -209.498242472420
             G0:     -15.645797833824
   RMS gradient:       0.061736830032
    Initial Ne1:      36.99999999
    Initial Ne2:      35.99999999
      Final Ne1:      37.00000000
      Final Ne2:      36.00000000

=================== Penalty functional idempotency correction ==================
 RMS occupancy error at iteration   1:  0.011438 (step -0.4684 Ne1=     37.0000)
                                                               Ne2=     36.0000
 RMS occupancy error at iteration   2:  0.000209 (step -0.5000 Ne1=     37.0000)
                                                               Ne2=     36.0000
 RMS occupancy error at iteration   3:  0.000000 (step -0.5000 Ne1=     37.0000)
                                                               Ne2=     36.0000
            Final RMS occupancy error   :  0.000000 (Ne1=     37.0000)
                                                     Ne2=     36.0000
            Final occupancy bounds spin 1: [  0.000,  1.000]
            Final occupancy bounds spin 2: [  0.000,  1.000]
================================================================================

    2        -2.094982424724E+02     6.1737E-02     4.0082E-02    -1.0619E+00

################################################################################
DFT+U information on atom      1 of Hubbard species Fe  
################################################################################
Occupancy matrix of Hubbard site      1 and spin      1 is 
  m_l =   -2          -1           0           1           2
  0.98044594 -0.00366461 -0.00558321 -0.00271437  0.00028805
 -0.00366416  0.98649520  0.00120260  0.00143111 -0.00336470
 -0.00558104  0.00120184  0.99009708  0.00448791 -0.00115141
 -0.00271451  0.00143125  0.00449044  0.98673042  0.00263226
  0.00028829 -0.00336430 -0.00115171  0.00263160  0.99238619
################################################################################
Occupancy matrix of Hubbard site      1 and spin      2 is 
  m_l =   -2          -1           0           1           2
  0.98042008 -0.00370985 -0.00555838 -0.00257020  0.00020936
 -0.00370941  0.98641917  0.00124495  0.00167849 -0.00349949
 -0.00555622  0.00124416  0.99007836  0.00434799 -0.00107550
 -0.00257033  0.00167863  0.00435045  0.98593609  0.00306597
  0.00020961 -0.00349906 -0.00107576  0.00306524  0.99214946
################################################################################
Total occupancy of Hubbard site      1 is         9.87115800 e
Local magnetic moment of Hubbard site      1 is   0.00115167 mu_B
DFT+U energy of Hubbard site      1 is            0.00930744 Ha
################################################################################

      ideal mu1:      -0.343514154612
      ideal mu2:      -0.334292260691
             Q0:        -210.787683178666
             G0:     -12.398346681923
   RMS gradient:       0.050308720112
    Initial Ne1:      36.99999999
    Initial Ne2:      36.00000000
      Final Ne1:      37.00000000
      Final Ne2:      36.00000000

=================== Penalty functional idempotency correction ==================
 RMS occupancy error at iteration   1:  0.020079 (step -0.4462 Ne1=     37.0000)
                                                               Ne2=     36.0000
 RMS occupancy error at iteration   2:  0.000623 (step -0.4999 Ne1=     37.0000)
                                                               Ne2=     36.0000
 RMS occupancy error at iteration   3:  0.000002 (step -0.5000 Ne1=     37.0000)
                                                               Ne2=     36.0000
            Final RMS occupancy error   :  0.000000 (Ne1=     37.0000)
                                                     Ne2=     36.0000
            Final occupancy bounds spin 1: [  0.000,  1.000]
            Final occupancy bounds spin 2: [  0.000,  1.000]
================================================================================

    3        -2.107876831787E+02     5.0309E-02     3.2665E-02    -1.2894E+00

################################################################################
DFT+U information on atom      1 of Hubbard species Fe  
################################################################################
Occupancy matrix of Hubbard site      1 and spin      1 is 
  m_l =   -2          -1           0           1           2
  0.93523565 -0.01015083 -0.02111351 -0.00722439  0.00087120
 -0.01014981  0.95500259  0.00681686  0.00421249 -0.01273596
 -0.02110457  0.00681327  0.96417085  0.01601924 -0.00329890
 -0.00722504  0.00421290  0.01602812  0.95555935  0.01014086
  0.00087212 -0.01273430 -0.00329965  0.01013826  0.97325129
################################################################################
Occupancy matrix of Hubbard site      1 and spin      2 is 
  m_l =   -2          -1           0           1           2
  0.93521271 -0.01022864 -0.02107352 -0.00696482  0.00072991
 -0.01022763  0.95480016  0.00693760  0.00492613 -0.01312095
 -0.02106460  0.00693394  0.96412425  0.01558567 -0.00306456
 -0.00696545  0.00492650  0.01559431  0.95310096  0.01147176
  0.00073083 -0.01311922 -0.00306521  0.01146894  0.97253170
################################################################################
Total occupancy of Hubbard site      1 is         9.56298951 e
Local magnetic moment of Hubbard site      1 is   0.00344995 mu_B
DFT+U energy of Hubbard site      1 is            0.03024371 Ha
################################################################################

      ideal mu1:      -0.544347583557
      ideal mu2:      -0.540579098961
             Q0:        -211.729289524737
             G0:     -10.969785055004
   RMS gradient:       0.047754709895
========================= Kernel Line Step Protection ==========================
|  Iter |  Trial Step |   RMS Occupancy Error |   Occupancy Bounds | Accepted? |
    0        0.000000                0.000000    [ 1.0000:  0.0000]
    1        0.500000                0.442481    [ 1.8297: -0.8545]        No
    2        0.250000                0.138750    [ 1.3421: -0.3529]       Yes
================================================================================

################################################################################
DFT+U information on atom      1 of Hubbard species Fe  
################################################################################
Occupancy matrix of Hubbard site      1 and spin      1 is 
  m_l =   -2          -1           0           1           2
  0.66540727 -0.04166136 -0.10109749 -0.03604668  0.00644498
 -0.04165979  0.74136680  0.05361982  0.02166863 -0.06991783
 -0.10105291  0.05359431  0.78713326  0.08349733 -0.01412867
 -0.03605051  0.02167014  0.08354367  0.74751704  0.05326519
  0.00644870 -0.06990870 -0.01413195  0.05325126  0.82602189
################################################################################
Occupancy matrix of Hubbard site      1 and spin      2 is 
  m_l =   -2          -1           0           1           2
  0.66536012 -0.04169687 -0.10096293 -0.03552962  0.00616025
 -0.04169539  0.74132480  0.05425313  0.02330997 -0.07075093
 -0.10091835  0.05422725  0.78639754  0.08005442 -0.01228540
 -0.03553308  0.02331128  0.08009900  0.73611986  0.05925495
  0.00616382 -0.07074156 -0.01228806  0.05924006  0.82281218
################################################################################
Total occupancy of Hubbard site      1 is         7.51946076 e
Local magnetic moment of Hubbard site      1 is   0.01543175 mu_B
DFT+U energy of Hubbard site      1 is            0.12569453 Ha
################################################################################

     Trial step:       0.250000000000
             Q1:        -211.245804015098
 Quadratic coef:       3.225931773391
 Linear coef   :      -2.742446263751
           Qmin:        -212.312145272928
Quadratic minimum step length (  0.106265664326) accepted
    Initial Ne1:      36.99999999
    Initial Ne2:      36.00000000
      Final Ne1:      37.00000000
      Final Ne2:      36.00000000

=================== Penalty functional idempotency correction ==================
 RMS occupancy error at iteration   1:  0.039213 (step -0.3965 Ne1=     37.0000)
                                                               Ne2=     36.0000
 RMS occupancy error at iteration   2:  0.002628 (step -0.5010 Ne1=     37.0000)
                                                               Ne2=     36.0000
 RMS occupancy error at iteration   3:  0.000046 (step -0.5002 Ne1=     37.0000)
                                                               Ne2=     36.0000
            Final RMS occupancy error   :  0.000000 (Ne1=     37.0000)
                                                     Ne2=     36.0000
            Final occupancy bounds spin 1: [ -0.000,  1.000]
            Final occupancy bounds spin 2: [ -0.000,  1.000]
================================================================================

    4        -2.117292895247E+02     4.7755E-02     3.1008E-02    -9.4161E-01

################################################################################
DFT+U information on atom      1 of Hubbard species Fe  
################################################################################
Occupancy matrix of Hubbard site      1 and spin      1 is 
  m_l =   -2          -1           0           1           2
  0.83678117 -0.02261697 -0.05216361 -0.01646349  0.00254273
 -0.02261517  0.88146175  0.02060759  0.01243236 -0.03247077
 -0.05214110  0.02059726  0.90366991  0.04089197 -0.00791204
 -0.01646538  0.01243331  0.04091449  0.88335324  0.02529325
  0.00254489 -0.03246663 -0.00791384  0.02528675  0.92541951
################################################################################
Occupancy matrix of Hubbard site      1 and spin      2 is 
  m_l =   -2          -1           0           1           2
  0.83676569 -0.02274775 -0.05209266 -0.01598036  0.00227795
 -0.02274599  0.88109227  0.02091733  0.01398671 -0.03329662
 -0.05207017  0.02090682  0.90349228  0.03955416 -0.00719466
 -0.01598215  0.01398759  0.03957597  0.87704851  0.02866398
  0.00228009 -0.03329230 -0.00719620  0.02865693  0.92362204
################################################################################
Total occupancy of Hubbard site      1 is         8.85270639 e
Local magnetic moment of Hubbard site      1 is   0.00866479 mu_B
DFT+U energy of Hubbard site      1 is            0.07178825 Ha
################################################################################

      ideal mu1:      -0.777683794395
      ideal mu2:      -0.780130712370
    5        -2.124187906158E+02     5.2106E-02     3.3829E-02    -6.8950E-01
Finished density kernel iterations (   5)

Writing density kernel to file "Fe_EtOH_3_LowSpin_NGWFSP.dkn" ... done


>>> Density kernel optimised for the current NGWF basis:
     ~~~~~~~~~~~~~~~~~~~~~~~~~~~~~~~~~~~~~~~~~~~~~~~~~~~~~~~~~~~
     Total energy                =  -2.12418790615776E+02  Eh
     Estimated bandgap (UP spin) =  -1.1090E+00  Eh
     Estimated bandgap (DN spin) =  -1.1076E+00  Eh
     RMS occupancy error         =   1.1539E-08
     [H,K] commutator            =   3.3829E-02
     UP spin occupancy bounds    = [ -0.000:  1.000]
     DN spin occupancy bounds    = [ -0.000:  1.000]
     ~~~~~~~~~~~~~~~~~~~~~~~~~~~~~~~~~~~~~~~~~~~~~~~~~~~~~~~~~~~




################################################################################
########################### NGWF CG iteration  001 #############################
################################################################################
****** Reciprocal space K.E. preconditioning with k_zero =  3.0000 a0^-1 *******

>>> Checking for convergence of NGWFs:   NOT CONVERGED
  ========================================================================
         NGWF RMS gradient =  1.4006E-03 >  2.0000E-06  | above tolerance
  ========================================================================

>>> Improving NGWFs using line search:
============ Calculation of NGWF S^-1 using Hotelling algorithm ================ 
     Iteration  |  Spin  |  Frobenius norm and Maximum abs value (of I-S*S_n^-1)
         1           1      0.73501494E-01     0.18876482E-01
         1           2      0.73797502E-01     0.18877816E-01
         2           1      0.81543291E-03     0.25663925E-03
         2           2      0.81962681E-03     0.25673253E-03
         3           1      0.19100631E-06     0.73522778E-07
         3           2      0.19266078E-06     0.73479897E-07
         4           1      0.15312102E-13     0.65503158E-14
         4           2      0.15131590E-13     0.64392935E-14
================================================================================

################################################################################
DFT+U information on atom      1 of Hubbard species Fe  
################################################################################
Occupancy matrix of Hubbard site      1 and spin      1 is 
  m_l =   -2          -1           0           1           2
  0.82880508 -0.02330074 -0.05417743 -0.01680907  0.00265177
 -0.02329891  0.87485760  0.02153683  0.01399870 -0.03355995
 -0.05415408  0.02152604  0.89836406  0.04269944 -0.00836605
 -0.01681109  0.01399971  0.04272292  0.87701741  0.02604931
  0.00265402 -0.03355574 -0.00836796  0.02604264  0.92076825
################################################################################
Occupancy matrix of Hubbard site      1 and spin      2 is 
  m_l =   -2          -1           0           1           2
  0.82879084 -0.02343730 -0.05410624 -0.01630614  0.00237383
 -0.02343551  0.87447669  0.02187266  0.01563973 -0.03443220
 -0.05408292  0.02186168  0.89817447  0.04123103 -0.00757696
 -0.01630804  0.01564065  0.04125375  0.87023285  0.02968262
  0.00237606 -0.03442780 -0.00757860  0.02967535  0.91882717
################################################################################
Total occupancy of Hubbard site      1 is         8.79031442 e
Local magnetic moment of Hubbard site      1 is   0.00931038 mu_B
DFT+U energy of Hubbard site      1 is            0.07506276 Ha
################################################################################

============ Calculation of NGWF S^-1 using Hotelling algorithm ================ 
     Iteration  |  Spin  |  Frobenius norm and Maximum abs value (of I-S*S_n^-1)
         1           1      0.53764230E+00     0.13717616E+00
         1           2      0.53962975E+00     0.13716998E+00
         2           1      0.44310709E-01     0.14258090E-01
         2           2      0.44489734E-01     0.14263037E-01
         3           1      0.60961896E-03     0.22370216E-03
         3           2      0.61245096E-03     0.22387481E-03
         4           1      0.16452821E-06     0.65901311E-07
         4           2      0.16536796E-06     0.66063469E-07
         5           1      0.17906907E-13     0.87430063E-14
         5           2      0.17982629E-13     0.88401508E-14
================================================================================
------------------------------- NGWF line search -------------------------------
RMS gradient                =       0.00140064548229
Trial step length           =               0.122474
Gradient along search dir.  =         -4.30651921226
Functional at step 0        =    -212.41879061577606
Functional at step 1        =    -212.91379315123643
Functional predicted        =    -214.56293548033264
Selected quadratic step     =               0.995767
Conjugate gradients coeff.  =               0.000000
--------------------------- NGWF line search finished --------------------------
                                               
Writing NGWFs to file "Fe_EtOH_3_LowSpin_NGWFSP.tightbox_ngwfs".... done

>>> Optimising kernel for current NGWFs:
   Initial electron number for spin 1:      37.42480960
   Initial electron number for spin 2:      36.41720412
     Final electron number for spin 1:      37.00000000
     Final electron number for spin 2:      36.00000000

=================== Penalty functional idempotency correction ==================
 RMS occupancy error at iteration   1:  0.009662 (step -0.4701 Ne1=     37.0000)
                                                               Ne2=     36.0000
 RMS occupancy error at iteration   2:  0.000269 (step -0.5000 Ne1=     37.0000)
                                                               Ne2=     36.0000
 RMS occupancy error at iteration   3:  0.000000 (step -0.5000 Ne1=     37.0000)
                                                               Ne2=     36.0000
            Final RMS occupancy error   :  0.000000 (Ne1=     37.0000)
                                                     Ne2=     36.0000
            Final occupancy bounds spin 1: [  0.000,  1.000]
            Final occupancy bounds spin 2: [  0.000,  1.000]
================================================================================

................................................................................
<<<<<<<<<<<<<< LNV (Original version) density kernel optimisation >>>>>>>>>>>>>>
~~~~~~~~~~~~~~~~~~~~~~~~~~~~~~~~~~~~~~~~~~~~~~~~~~~~~~~~~~~~~~~~~~~~~~~~~~~~~~~~
   iter  |      energy (Eh)       | rms gradient |  commutator  |   dE (Eh)

################################################################################
DFT+U information on atom      1 of Hubbard species Fe  
################################################################################
Occupancy matrix of Hubbard site      1 and spin      1 is 
  m_l =   -2          -1           0           1           2
  0.75945904 -0.02683124 -0.06546058 -0.01791651  0.00330314
 -0.02682932  0.81205493  0.02739598  0.02625952 -0.03978383
 -0.06543272  0.02738231  0.84527101  0.05423266 -0.01156199
 -0.01791950  0.02626093  0.05426219  0.81646565  0.03002858
  0.00330598 -0.03977939 -0.01156479  0.03002107  0.86997428
################################################################################
Occupancy matrix of Hubbard site      1 and spin      2 is 
  m_l =   -2          -1           0           1           2
  0.75944482 -0.02699876 -0.06538812 -0.01728131  0.00293584
 -0.02699689  0.81160711  0.02792092  0.02845720 -0.04095400
 -0.06536027  0.02790695  0.84495607  0.05173943 -0.01020500
 -0.01728407  0.02845847  0.05176766  0.80610600  0.03560984
  0.00293861 -0.04094929 -0.01020734  0.03560141  0.86695925
################################################################################
Total occupancy of Hubbard site      1 is         8.19229815 e
Local magnetic moment of Hubbard site      1 is   0.01415167 mu_B
DFT+U energy of Hubbard site      1 is            0.10417480 Ha
################################################################################

      ideal mu1:      -0.893008324437
      ideal mu2:      -0.900077663437
             Q0:        -214.438378086161
             G0:      -3.601961774778
   RMS gradient:       0.040059889309

################################################################################
DFT+U information on atom      1 of Hubbard species Fe  
################################################################################
Occupancy matrix of Hubbard site      1 and spin      1 is 
  m_l =   -2          -1           0           1           2
  0.78159508 -0.02539252 -0.05770686 -0.01446277  0.00111800
 -0.02539073  0.82601216  0.02450667  0.02808604 -0.03496392
 -0.05768267  0.02449430  0.86101525  0.04758410 -0.01097864
 -0.01446547  0.02808729  0.04760998  0.83244834  0.02710533
  0.00112112 -0.03496035 -0.01098115  0.02709872  0.87996342
################################################################################
Occupancy matrix of Hubbard site      1 and spin      2 is 
  m_l =   -2          -1           0           1           2
  0.78159306 -0.02555938 -0.05769281 -0.01392734  0.00079761
 -0.02555765  0.82548069  0.02514058  0.03069742 -0.03635046
 -0.05766859  0.02512786  0.86072717  0.04469530 -0.00940337
 -0.01392975  0.03069850  0.04471970  0.82024152  0.03368137
  0.00080063 -0.03634656 -0.00940536  0.03367368  0.87640359
################################################################################
Total occupancy of Hubbard site      1 is         8.34548028 e
Local magnetic moment of Hubbard site      1 is   0.01658821 mu_B
DFT+U energy of Hubbard site      1 is            0.09769355 Ha
################################################################################

     Trial step:       0.162992073677
             Q1:        -214.809287940062
 Quadratic coef:       0.216181365074
 Linear coef   :      -0.587091218975
           Qmin:        -214.836974074395
Quadratic minimum step length (  0.221321609255) accepted
    Initial Ne1:      37.00000000
    Initial Ne2:      36.00000000
      Final Ne1:      37.00000000
      Final Ne2:      36.00000000

=================== Penalty functional idempotency correction ==================
 RMS occupancy error at iteration   1:  0.006889 (step -0.4687 Ne1=     37.0000)
                                                               Ne2=     36.0000
 RMS occupancy error at iteration   2:  0.000083 (step -0.4999 Ne1=     37.0000)
                                                               Ne2=     36.0000
            Final RMS occupancy error   :  0.000000 (Ne1=     37.0000)
                                                     Ne2=     36.0000
            Final occupancy bounds spin 1: [  0.000,  1.000]
            Final occupancy bounds spin 2: [  0.000,  1.000]
================================================================================

    1        -2.144383780862E+02     4.0060E-02     2.6007E-02

################################################################################
DFT+U information on atom      1 of Hubbard species Fe  
################################################################################
Occupancy matrix of Hubbard site      1 and spin      1 is 
  m_l =   -2          -1           0           1           2
  0.78928524 -0.02491612 -0.05502637 -0.01321350  0.00029656
 -0.02491438  0.83056706  0.02362550  0.02880164 -0.03350315
 -0.05500342  0.02361354  0.86634725  0.04533274 -0.01077944
 -0.01321612  0.02880283  0.04535738  0.83781411  0.02627694
  0.00029980 -0.03349984 -0.01078184  0.02627060  0.88322724
################################################################################
Occupancy matrix of Hubbard site      1 and spin      2 is 
  m_l =   -2          -1           0           1           2
  0.78928682 -0.02508067 -0.05503197 -0.01271647 -0.00000481
 -0.02507900  0.83000813  0.02429658  0.03155334 -0.03496178
 -0.05500898  0.02428424  0.86606315  0.04229952 -0.00912686
 -0.01271876  0.03155435  0.04232262  0.82493610  0.03320603
 -0.00000168 -0.03495813 -0.00912872  0.03319854  0.87947823
################################################################################
Total occupancy of Hubbard site      1 is         8.39701332 e
Local magnetic moment of Hubbard site      1 is   0.01746845 mu_B
DFT+U energy of Hubbard site      1 is            0.09540662 Ha
################################################################################

      ideal mu1:      -0.837428915119
      ideal mu2:      -0.842957234418
             Q0:        -214.857531440450
             G0:      -0.782723898448
   RMS gradient:       0.017722517824

################################################################################
DFT+U information on atom      1 of Hubbard species Fe  
################################################################################
Occupancy matrix of Hubbard site      1 and spin      1 is 
  m_l =   -2          -1           0           1           2
  0.78718289 -0.02618559 -0.05393615 -0.00947558 -0.00332384
 -0.02618423  0.81816811  0.02685523  0.03704894 -0.03601222
 -0.05391365  0.02684185  0.86358818  0.04524344 -0.01178028
 -0.00947850  0.03705005  0.04526794  0.83112098  0.02953501
 -0.00331943 -0.03600891 -0.01178260  0.02952808  0.87433524
################################################################################
Occupancy matrix of Hubbard site      1 and spin      2 is 
  m_l =   -2          -1           0           1           2
  0.78719270 -0.02634155 -0.05401877 -0.00911449 -0.00355661
 -0.02634028  0.81752094  0.02776402  0.04050611 -0.03781797
 -0.05399617  0.02775014  0.86312969  0.04091083 -0.00945241
 -0.00911692  0.04050696  0.04093316  0.81345531  0.03890738
 -0.00355240 -0.03781423 -0.00945398  0.03889892  0.86932251
################################################################################
Total occupancy of Hubbard site      1 is         8.32501655 e
Local magnetic moment of Hubbard site      1 is   0.02377426 mu_B
DFT+U energy of Hubbard site      1 is            0.09867763 Ha
################################################################################

     Trial step:       0.189930692733
             Q1:        -214.993174760577
 Quadratic coef:       0.013019972123
 Linear coef   :      -0.148663292251
           Qmin:        -215.281894377908
Quadratic minimum step length (  1.084323446107) accepted
    Initial Ne1:      37.00000018
    Initial Ne2:      36.00000009
      Final Ne1:      37.00000000
      Final Ne2:      36.00000000

=================== Penalty functional idempotency correction ==================
 RMS occupancy error at iteration   1:  0.052638 (step -0.3265 Ne1=     37.0000)
                                                               Ne2=     36.0000
 RMS occupancy error at iteration   2:  0.006258 (step -0.4950 Ne1=     37.0000)
                                                               Ne2=     36.0000
[...]
*                       x            y            z      *
*                                                        *
*    Fe      1     -0.00000000   0.00000000   0.00000000 *
*    O       2     -0.00000082  -0.00000308  -0.00000111 *
*    O       3      0.00000067   0.00000308   0.00000024 *
*    O       4     -0.00000293  -0.00000130  -0.00000092 *
*    H       5      0.00000000   0.00000000   0.00000000 *
*    C       6      0.01548953   0.00195727   0.00383731 *
*    H       7      0.00000000   0.00000000   0.00000000 *
*    C       8      0.00205851   0.01611376   0.00289975 *
*    H       9      0.00000000   0.00000000   0.00000000 *
*    C      10     -0.00591979  -0.01431313   0.00411618 *
*    H      11      0.00000000   0.00000000   0.00000000 *
*    H      12      0.00000000   0.00000000   0.00000000 *
*    C      13     -0.00113399   0.00425876  -0.00295714 *
*    H      14      0.00000000   0.00000000   0.00000000 *
*    H      15      0.00000000   0.00000000   0.00000000 *
*    H      16      0.00000000   0.00000000   0.00000000 *
*    H      17      0.00000000   0.00000000   0.00000000 *
*    C      18     -0.00297018  -0.00185971   0.00368705 *
*    H      19      0.00000000   0.00000000   0.00000000 *
*    H      20      0.00000000   0.00000000   0.00000000 *
*    H      21      0.00000000   0.00000000   0.00000000 *
*    H      22      0.00000000   0.00000000   0.00000000 *
*    H      23      0.00000000   0.00000000   0.00000000 *
*    H      24      0.00000000   0.00000000   0.00000000 *
*    C      25      0.00394408  -0.00312965  -0.00062690 *
*    H      26      0.00000000   0.00000000   0.00000000 *
*    H      27      0.00000000   0.00000000   0.00000000 *
*    H      28      0.00000000   0.00000000   0.00000000 *
*                                                        *
**********************************************************
TOTAL:              0.01146508   0.00302600   0.01095444
 
********************* Unconstrained **********************
********************** DFT+U forces **********************
*                                                        *
* Element  Atom         Cartesian components (Eh/a)      *
* ------------------------------------------------------ *
*                       x            y            z      *
*                                                        *
*    Fe      1      0.00100053   0.00062608  -0.00050512 *
*    O       2      0.00000000   0.00000000   0.00000000 *
*    O       3      0.00000000   0.00000000   0.00000000 *
*    O       4      0.00000000   0.00000000   0.00000000 *
*    H       5      0.00000000   0.00000000   0.00000000 *
*    C       6      0.00000000   0.00000000   0.00000000 *
*    H       7      0.00000000   0.00000000   0.00000000 *
*    C       8      0.00000000   0.00000000   0.00000000 *
*    H       9      0.00000000   0.00000000   0.00000000 *
*    C      10      0.00000000   0.00000000   0.00000000 *
*    H      11      0.00000000   0.00000000   0.00000000 *
*    H      12      0.00000000   0.00000000   0.00000000 *
*    C      13      0.00000000   0.00000000   0.00000000 *
*    H      14      0.00000000   0.00000000   0.00000000 *
*    H      15      0.00000000   0.00000000   0.00000000 *
*    H      16      0.00000000   0.00000000   0.00000000 *
*    H      17      0.00000000   0.00000000   0.00000000 *
*    C      18      0.00000000   0.00000000   0.00000000 *
*    H      19      0.00000000   0.00000000   0.00000000 *
*    H      20      0.00000000   0.00000000   0.00000000 *
*    H      21      0.00000000   0.00000000   0.00000000 *
*    H      22      0.00000000   0.00000000   0.00000000 *
*    H      23      0.00000000   0.00000000   0.00000000 *
*    H      24      0.00000000   0.00000000   0.00000000 *
*    C      25      0.00000000   0.00000000   0.00000000 *
*    H      26      0.00000000   0.00000000   0.00000000 *
*    H      27      0.00000000   0.00000000   0.00000000 *
*    H      28      0.00000000   0.00000000   0.00000000 *
*                                                        *
**********************************************************
TOTAL:              0.00100053   0.00062608  -0.00050512
 
********************* Unconstrained **********************
****** Correction to ensure the total force is zero ******
*                                                        *
* Element  Atom         Cartesian components (Eh/a)      *
* ------------------------------------------------------ *
*                       x            y            z      *
*                                                        *
*    Fe      1     -0.00002224  -0.00007045  -0.00014554 *
*    O       2     -0.00002224  -0.00007045  -0.00014554 *
*    O       3     -0.00002224  -0.00007045  -0.00014554 *
*    O       4     -0.00002224  -0.00007045  -0.00014554 *
*    H       5     -0.00002224  -0.00007045  -0.00014554 *
*    C       6     -0.00002224  -0.00007045  -0.00014554 *
*    H       7     -0.00002224  -0.00007045  -0.00014554 *
*    C       8     -0.00002224  -0.00007045  -0.00014554 *
*    H       9     -0.00002224  -0.00007045  -0.00014554 *
*    C      10     -0.00002224  -0.00007045  -0.00014554 *
*    H      11     -0.00002224  -0.00007045  -0.00014554 *
*    H      12     -0.00002224  -0.00007045  -0.00014554 *
*    C      13     -0.00002224  -0.00007045  -0.00014554 *
*    H      14     -0.00002224  -0.00007045  -0.00014554 *
*    H      15     -0.00002224  -0.00007045  -0.00014554 *
*    H      16     -0.00002224  -0.00007045  -0.00014554 *
*    H      17     -0.00002224  -0.00007045  -0.00014554 *
*    C      18     -0.00002224  -0.00007045  -0.00014554 *
*    H      19     -0.00002224  -0.00007045  -0.00014554 *
*    H      20     -0.00002224  -0.00007045  -0.00014554 *
*    H      21     -0.00002224  -0.00007045  -0.00014554 *
*    H      22     -0.00002224  -0.00007045  -0.00014554 *
*    H      23     -0.00002224  -0.00007045  -0.00014554 *
*    H      24     -0.00002224  -0.00007045  -0.00014554 *
*    C      25     -0.00002224  -0.00007045  -0.00014554 *
*    H      26     -0.00002224  -0.00007045  -0.00014554 *
*    H      27     -0.00002224  -0.00007045  -0.00014554 *
*    H      28     -0.00002224  -0.00007045  -0.00014554 *
*                                                        *
**********************************************************
TOTAL:             -0.00062276  -0.00197257  -0.00407520

********************* Unconstrained **********************
************************* Forces *************************
*                                                        *
* Element  Atom         Cartesian components (Eh/a)      *
* ------------------------------------------------------ *
*                       x            y            z      *
*                                                        *
*    Fe      1      0.00044101   0.00077679   0.00530416 *
*    O       2      0.00437967  -0.00060004   0.00132598 *
*    O       3      0.00032856  -0.00224671  -0.00598100 *
*    O       4     -0.00181382   0.00346533   0.00321913 *
*    H       5     -0.00844770  -0.00155563  -0.00623571 *
*    C       6      0.00560698   0.00136511   0.00095819 *
*    H       7      0.00056470   0.00628339   0.00787473 *
*    C       8      0.00095250   0.00478308   0.00168413 *
*    H       9     -0.00112948  -0.00631604  -0.00818770 *
*    C      10     -0.00071194  -0.00503764   0.00056175 *
*    H      11      0.00406302  -0.00014193   0.00101007 *
*    H      12     -0.00200088   0.00064576   0.00298720 *
*    C      13      0.00001261  -0.00228948  -0.00381543 *
*    H      14      0.00161050  -0.00028481  -0.00226886 *
*    H      15      0.00009143   0.00461226   0.00169478 *
*    H      16     -0.00405022   0.00025451  -0.00085795 *
*    H      17     -0.00193313  -0.00117162  -0.00361026 *
*    C      18     -0.00147702   0.00435727   0.00015738 *
*    H      19      0.00265070  -0.00191486  -0.00008285 *
*    H      20     -0.00242833   0.00092372  -0.00027623 *
*    H      21      0.00176360   0.00044558   0.00315856 *
*    H      22     -0.00107557  -0.00489881   0.00095320 *
*    H      23     -0.00007725   0.00030573   0.00397019 *
*    H      24      0.00038029   0.00303157  -0.00140285 *
*    C      25     -0.00261815  -0.00283265  -0.00111309 *
*    H      26     -0.00015342  -0.00266510   0.00139375 *
*    H      27      0.00449556   0.00060171   0.00110433 *
*    H      28      0.00057581   0.00010352  -0.00352560 *
*                                                        *
**********************************************************
* TOTAL:           -0.00000000   0.00000000  -0.00000000 *
**********************************************************
 
 
***********************************************************
********** Summary of Forces (values in Eh/a) *************
*                                                         *
* ---------------------- Minimum ------------------------ *
* Atom:        20, |F|min =    0.00261273                 *
* Components:     Fx|min       Fy|min       Fz|min        *
*              -0.00242833   0.00092372  -0.00027623      *
*                                                         *
* ---------------------- Maximum ------------------------ *
* Atom:         5, |F|max =    0.01061451                 *
* Components:     Fx|max       Fy|max       Fz|max        *
*              -0.00844770  -0.00155563  -0.00623571      *
*                                                         *
* ---------------- Root Mean Square Force --------------- *
*                  |F|rms =    0.00537703                 *
* Components:     Fx|rms       Fy|rms       Fz|rms        *
*               0.00279529   0.00299338   0.00348403      *
***********************************************************
 

------------------------------ TIMING INFORMATION ------------------------------
AVERAGE TIME:    6961.161s on      6 proc(s)                                    
TOTAL TIME:      6961.161s on      6 proc(s)                                    
==================== AVERAGE TIMINGS FROM ALL PROCS (CUMULATIVE) =====================
|| TAG                                         #calls     cpu time   %total  Gflops ||
|| hubbard_species_proj                       :     1        0.00s   0.000%  ------ ||
|| onetep.F90 main loop imbalance             :     1        0.00s   0.000%  ------ ||
|| hubbard_ngwf_select                        :     1        0.00s   0.000%  ------ ||
|| hubbard_ngwf_on_grid                       :     1        0.00s   0.000%  ------ ||
|| linalg_invert_sym_matrix                   :     4        0.00s   0.000%  ------ || (1 procs only)
|| hash_table_free                            :    85        0.00s   0.000%  ------ ||
|| hubbard_tensorial_correction               :     2        0.00s   0.000%  ------ ||
|| hubbard_projector_character                :     1        0.00s   0.000%  ------ ||
|| sparse_spam3toblacs_real_fast_imbal        :     6        0.00s   0.000%  ------ ||
|| ewald_calculate_forces_realspace           :     1        0.00s   0.000%  ------ ||
|| sparse_spam3toblacs_real_fast_B2           :    36        0.00s   0.000%  ------ ||
|| sparse_blacstospam3_real_fast_imbal        :    24        0.00s   0.000%  ------ ||
|| sparse_spam3toblacs_real_fast_B1           :    36        0.00s   0.000%  ------ ||
|| density_fftbox_interp_mult_imbal           : 11440        0.00s   0.000%  ------ ||
|| sparse_spam3toblacs_real_fast              :     6        0.00s   0.000%  ------ ||
|| ewald_calculate_energy                     :     1        0.00s   0.000%  ------ ||
|| sw_bessel_init_cpu                         :     1        0.01s   0.000%  ------ || (1 procs only)
|| linalg_dsyev_lt                            :   436        0.02s   0.000%  ------ || (1 procs only)
|| ewald_calculate_forces_recipspace          :     1        0.00s   0.000%  ------ ||
|| ewald_calculate_forces                     :     1        0.00s   0.000%  ------ ||
|| sparse_blacstospam3_real_fast              :    24        0.01s   0.000%  ------ ||
|| sparse_init                                :     1        0.01s   0.000%  ------ ||
|| sparse_set_to_garbage                      :  1862        0.01s   0.000%  ------ ||
|| paw_dij_hartree                            :   481        0.03s   0.000%  ------ ||
|| linalg_dgemv                               :   127        0.03s   0.000%  ------ ||
|| hubbard_projection_mtx                     :    87        0.03s   0.000%  ------ ||
|| augmentation_density_forces                :     1        0.05s   0.001%  ------ ||
|| sw_init                                    :   897        0.07s   0.001%  ------ ||
|| palser_mano_kernel_optimise_spam3_embed    :     2        0.08s   0.001%  ------ ||
|| basis_extract_function_from_box            :  1920        0.10s   0.001%  ------ ||
|| hubbard_ham_matrix                         :   217        0.10s   0.001%  ------ ||
|| dense_eigensolve                           :     2        0.11s   0.002%  ------ ||
|| paw_tcore_density                          :     1        0.11s   0.002%  ------ ||
|| hubbard_projector_ham                      :   216        0.13s   0.002%  ------ ||
|| pseudo_make_structure_factor               :     1        0.17s   0.002%  ------ ||
|| sparse_embed_array_hotelling_invert        :    85        0.18s   0.003%  ------ ||
|| paw_tcore_hartree_on_grid                  :     1        0.32s   0.005%  ------ ||
|| hubbard_calculate_forces                   :     1        0.32s   0.005%  ------ ||
|| paw_sphere_density_on_grid                 :     1        0.37s   0.005%  ------ ||
|| ngwfs_initialise_from_radial               :     4        0.50s   0.007%  ------ ||
|| onetep.F90 final imbalance                 :     1        0.55s   0.008%  ------ ||
|| paw_tcore_hartree_calc_forces              :     1        0.57s   0.008%  ------ ||
|| nonsc_forces_ngwfs_calc                    :     1        0.65s   0.009%  ------ ||
|| hubbard_energy_total                       :   436        0.68s   0.010%  ------ ||
|| lnv_gradient_norm                          :   215        0.83s   0.012%  ------ ||
|| kernel_purify                              :   685        0.95s   0.014%  ------ ||
|| integrals_grad_spam3                       :     4        0.97s   0.014%  ------ ||
|| kernel_fix                                 :   215        1.27s   0.018%  ------ ||
|| sparse_trace                               : 18665        1.66s   0.024%  ------ ||
|| paw_dataset_init                           :     4        1.74s   0.025%  ------ ||
|| paw_species_calc_proj_prec_mat             :     1        2.85s   0.041%  ------ ||
|| hubbard_projector_update                   :     1        3.31s   0.048%  ------ ||
|| paw_nlcc_calculate_forces                  :     1        3.48s   0.050%  ------ ||
|| function_ops_brappd_ketppd_spam3           :   344        3.96s   0.057%  ------ ||
|| projectors_func_grad_ovlp_box_spam3        :     6        4.87s   0.070%  ------ ||
|| sparse_product                             : 31666        4.97s   0.071%  ------ ||
|| ngwf_gradient_coeffs                       :    43        4.98s   0.072%  ------ ||
|| aug_nl_calculate_forces                    :     1        4.99s   0.072%  ------ ||
|| restart_kernel_write                       :    44        7.35s   0.106%  ------ ||
|| energy_and_force_init_cell                 :     1        7.61s   0.109%  ------ ||
|| basis_copy_function_to_box                 : 18203       13.38s   0.192%  ------ ||
|| restart_ngwfs_tightbox_output              :    42       15.33s   0.220%  ------ ||
|| fourier_apply_box_pair                     :  2953       17.09s   0.245% 113.518 ||
|| basis_dot_function_with_box                : 685.0k      18.63s   0.268%  ------ ||
|| augmentation_screen_dij_spam3              :   456       19.23s   0.276%  ------ ||
|| density_init_guess_real                    :     2       19.69s   0.283%  ------ ||
|| forces_calculate                           :     1       20.86s   0.300%  ------ ||
|| cell_grid_extract_box_real                 : 14133       24.30s   0.349%  ------ ||
|| basis_add_function_to_box                  : 925.4k      26.52s   0.381%  ------ ||
|| density_batch_row_sums                     :   880       26.71s   0.384%  ------ ||
|| integrals_kinetic_spam3                    :   170       28.27s   0.406%  ------ ||
|| aug_nonlocal_mat_spam3_embed_array         :   437       47.37s   0.681%  ------ ||
|| paw_dij_xc                                 :   481       51.30s   0.737%  ------ ||
|| cell_grid_deposit_box_real                 : 17961       54.40s   0.781%  ------ ||
|| eigenstates_calculate                      :     1       64.06s   0.920%  ------ ||
|| aug_density_on_grid_spam3                  :   440       72.98s   1.048%  ------ ||
|| integrals_locpot_mat_els_batch             :   470       75.68s   1.087%  ------ ||
|| density_fftbox_deposit_to_cell             : 11440       89.01s   1.279%  ------ ||
|| fourier_filter_cell                        :   556      111.46s   1.601%  25.299 ||
|| hamiltonian_energy_components              :     9      136.71s   1.964%  ------ ||
|| fourier_filter                             :  3780      145.30s   2.087%  ------ ||
|| projectors_init_fftbox_recip               :   611      161.95s   2.327%  ------ ||
|| hartree_on_grid_single                     :   439      162.90s   2.340%  ------ ||
|| properties_calculate                       :     1      178.06s   2.558%  ------ ||
|| fourier_interpolate_cell                   :   880      180.10s   2.587%  24.780 ||
|| fourier_interpolate                        :  3780      231.73s   3.329%  ------ ||
|| projectors_func_ovlp_box_spam3             :   346      234.88s   3.374%  ------ ||
|| projectors_grad_precond_batch              :    86      594.02s   8.533%  ------ ||
|| fourier_interpolate_product                :  9826      610.80s   8.774%  ------ ||
|| potential_apply_to_ngwf_batch              :   470      614.00s   8.820%  ------ ||
|| fourier_apply_cell_forward                 :  3952      653.48s   9.388%  27.608 ||
|| density_fftbox_interpolate_multiply        : 11440      658.30s   9.457%  ------ ||
|| fourier_apply_box                          : 73829      678.70s   9.750% 189.931 ||
|| integrals_locpot_dbl_grid                  :   470      689.80s   9.909%  ------ ||
|| fourier_apply_cell_backward                :  3952      697.88s  10.025%  25.851 ||
|| projectors_gradient_batch                  :   172     1084.57s  15.580%  ------ ||
|| density_batch_interp_deposit               :   880     1112.87s  15.987%  ------ ||
|| density_on_dbl_grid                        :   880     1156.63s  16.615%  ------ ||
|| xc_energy_potential                        :   439     1475.94s  21.203%  ------ ||
|| ngwf_gradient_build_batch                  :    86     1950.28s  28.017%  ------ ||
|| ngwf_gradient_batch                        :    86     2086.25s  29.970%  ------ ||
|| ngwf_gradient_lnv                          :    43     2116.87s  30.410%  ------ ||
|| hamiltonian_lhxc_calculate                 :   428     3312.46s  47.585%  ------ ||
|| lnv_denskernel_optimise_cg                 :    43     3759.42s  54.006%  ------ ||
|| ngwf_cg_optimise                           :     1     6712.87s  96.433%  ------ ||
|| energy_and_forces                          :     1     6952.44s  99.875%  ------ ||
|| total_time                                 :     1     6961.16s 100.000%  ------ ||
======================================================================================
Overhead of generating timer report: 
- 0 ms averaging over threads,
- 0 ms ensuring consistency across MPI ranks,
- 0 ms printing in order.

Job completed: 28-06-2025 14:06 (+0100)

onetep_launcher: ONETEP seems to have finished correctly (zero exit code).
                 Brought to you by PID 43174 on nid005560.
