==================================================================================
It's Sat 28 Jun 2025 12:10:13 PM BST.
*** Starting onetep_launcher (node nid006762, PIDs 101377 101378 101379 101380 101381 101382)...
    - ONETEP arguments: Fe_EtOH_3_HighSpin.dat
    - Current directory: /mnt/lustre/a2fs-work3/work/e89/e89/phsmea/onetep_ali/Fe_EtOH_3/HS/nsp
    - Launcher executable directory: /mnt/lustre/a2fs-work3/work/e89/e89/phsmea/onetep_ali
    - (-e) ONETEP executable specified through command-line: /work/e89/e89/phsmea/onetep.archer2_2024_cray_2
      ... trying /work/e89/e89/phsmea/onetep.archer2_2024_cray_2
          -> looks OK
*** Setting up environment...
    - (-s) Process stack size: unlimited
    - (-t) OMP_NUM_THREADS: 8
    - (-o) OMP_STACKSIZE: 64M
    - (-c) Maximum core file size: 2048000
    - (-d) decfort_dump_flag: n
    - (-m) I_MPI_OFA_TRANSLATION_CACHE: 0
    - (-m) I_MPI_DAPL_TRANSLATION_CACHE: 0
    - (-m) I_MPI_DAPL_UD_TRANSLATION_CACHE: 0
*** Starting ONETEP...
    - /work/e89/e89/phsmea/onetep.archer2_2024_cray_2 Fe_EtOH_3_HighSpin.dat
=================================================================================
_________________________________________________________________________________
 +---------------------------------------------------------------+
 |                                                               |
 |        ####### #     # ####### ####### ####### ######         |
 |        #     # ##    # #          #    #       #     #        |
 |        #     # # #   # #          #    #       #     #        |
 |        #     # #  #  # #####      #    #####   ######         |
 |        #     # #   # # #          #    #       #              |
 |        #     # #    ## #          #    #       #              |
 |        ####### #     # #######    #    ####### #              |
 |                                                               |
 |        Linear-Scaling Ab Initio Total Energy Program          |
 |                                                               |
 |          Release for academic collaborators of ODG            |
 |                                             Version 7.3.0     |
 | Remote: git@github.com:Miesaz/onetep_mea.git                  |
 | Local branch: master                                          |
 | Commit ID: 4af45e89288c8df5499704252eec3e032ee3d0c8           |
 | Date: Tue Aug 6 11:28:44 2024 +0100                           |
 | Locally modified files:                                       |
 |   src/hubbard_build_mod.F90                                   |
 |   src/services_mod.F90                                        |
 |                                                               |
 +---------------------------------------------------------------+
 |                                                               |
 |  Authors:                                                     |
 |  Jacek Dziedzic, Peter D. Haynes, Nicholas D. M. Hine,        |
 |  Arash A. Mostofi, Mike C. Payne and Chris-Kriton Skylaris    |
 |                                                               |
 |  Contributors:                                                |
 |  J. Aarons, L. Andrinopoulos, P. W. Avraam, R. A. Bell,       |
 |  A. Bhandari, G. A. Bramley, R. J. Charlton, S. J. Clark,     |
 |  R. J. Clements, G. C. Constantinescu, F. Corsetti,           |
 |  N. Corsini, O. Dieguez, S. M. M. Dubois, K. K. B. Duff,      |
 |  J. M. Escartin, M. Escobar Azor, A. Greco,                   |
 |  H. Helal, Q. O. Hill, L. P. Lee, J.-H. Li,                   |
 |  T. Li, E. B. Linscott, G. Moynihan, D. D. O`Regan,           |
 |  O. K. Okan, E. Parkinson, M. J. S. Phipps,                   |
 |  C. J. Pickard, J. C. A. Prentice, M. I. J. Probert,          |
 |  L. E. Ratcliff, M. Robinson, A. Ruiz Serrano,                |
 |  M. dos Santos Dias, J. S. Spencer, E. W. Tait,               |
 |  G. Teobaldi, D. Turban, V. Vitale, K. A. Wilkinson,          |
 |  C. Weber, J. C. Womack, Chengcheng Xiao, N. Yeung,           |
 |  and T. J. Zuehlsdorff.                                       |
 |                                                               |
 |                                   Copyright (c) 2004-2025     |
 |                                                               |
 |  Please cite:                                                 |
 |  "The ONETEP linear-scaling density functional theory program"|
 |   J. Chem. Phys. 152(17) 174111 (2020)                        |
 |                                                               |
 |          in all publications arising from your use of ONETEP. |
 |                                                               |
 +---------------------------------------------------------------+
 |                                                               |
 |   ONETEP is based on developments described in the following  |
 |   publications:                                               |
 |                                                               |
 |  "Nonorthogonal generalized Wannier function pseudopotential  |
 |   plane-wave method".                                         |
 |   C.-K. Skylaris, A. A. Mostofi, P. D. Haynes, O. Dieguez,    |
 |   M. C. Payne.                                                |
 |   Phys. Rev. B 66 035119 (2002).                              |
 |                                                               |
 |  "Preconditioned iterative minimization for linear-scaling    |
 |   electronic structure calculations".                         |
 |   A. A. Mostofi, P. D. Haynes, C.-K. Skylaris, M. C. Payne.   |
 |   J. Chem. Phys. 119(17), pp.8842-8848 (2003).                |
 |                                                               |
 |  "Total-energy calculations on a real space grid with         |
 |   localized functions and a plane-wave basis".                |
 |   A. A. Mostofi, C.-K. Skylaris, P. D. Haynes, M. C. Payne.   |
 |   Comput. Phys. Commun. 147, pp.788-802 (2002).               |
 |                                                               |
 |  "Accurate kinetic energy evaluation in electronic structure  |
 |   calculations with localized functions on real space grids"  |
 |   C.-K. Skylaris, A. A. Mostofi, P. D. Haynes, C. J. Pickard, |
 |   M. C. Payne.                                                |
 |   Comput. Phys. Commun. 140, pp.315-322 (2001).               |
 |                                                               |
 |  "Accurate ionic forces and geometry optimization in linear-  |
 |   scaling density-functional theory with local orbitals"      |
 |   N. D. M. Hine, M. Robinson, P. D. Haynes, C.-K. Skylaris,   |
 |   M. C. Payne, and A. A. Mostofi.                             |
 |   Phys. Rev. B 83 195102 (2011).                              |
 |                                                               |
 +---------------------------------------------------------------+

Job started: 28-06-2025 12:10 (+0100)
 
Reading parameters from file "Fe_EtOH_3_HighSpin.dat" ...... done

If your calculation crashes here, before "Checking processes and threads..."
is displayed, then your stack size is insufficient.
If so, use "ulimit -s unlimited" at runtime.
You can disable this check with "check_stack_size F".

Checking processes and threads...
   Determining the default number of threads...
      No default threads set at compilation time: defaulting to 1.
      OpenMP library call suggests 8 threads.
      Hybrid MPI-OpenMP compilation detected.
      Number of MPI processes > 1.
      OMP_NUM_THREADS environment variable present and
      its value matches the one obtained from the OpenMP library call.
      Using this value as default.
      Default threads: 8
      Default applies to threads_max and threads_num_fftboxes.
      Settings in the input file override this default.
   ... done

   Running with 6 MPI processes.
   There are 6 MPI processes running on the same node as the root process.
   Each MPI process is using: 
               1 threads for simulation cell FFTs.
               1 threads for threaded FFT box operations.
               8 threads for loops over batched FFT box operations.
               8 threads in other parallel regions.
   MPI Interface: S1 (use mpi_f08) (-DMPI -DUSE_MPI_F08).
   MPI_ASYNC_PROTECTS_NONBLOCKING: Yes. MPI_SUBARRAYS_SUPPORTED: Yes.
   FFTW Interface: OMP-capable and MODERN. (-DUSE_MODERN_FFTW specified).
   GPU Interface: None.
   GPU FFT Backend: None.
... done

Basic input checks...... done

Reading geometry and species blocks from file "Fe_EtOH_3_HighSpin.dat" ...
  <species_atomic_set> block not found: NGWF initialisation set to SOLVE
    
  Number of PPD points along a3 set to 1.  This is 
  the default value, it may have been provided also in the input file.
... done


--------------------------------------------------------------------------------
---------------------------------- INPUT FILE ----------------------------------
--------------------------------------------------------------------------------

charge : 3                                                                      
cutoff_energy : 800 eV                                                          
do_properties : T                                                               
edft : F                                                                        
fine_grid_scale : 4                                                             
forces_output_detail : VERBOSE                                                  
output_detail : VERBOSE                                                         
paw : T                                                                         
pseudo_path : ../../..                                                          
spin : 5                                                                        
task : SINGLEPOINT                                                              
write_denskern : T                                                              
write_forces : T                                                                
write_tightbox_ngwfs : T                                                        
xc_functional : pbe                                                             
%BLOCK HUBBARD                                                                  
Fe 2 4.0 0 -10 0 0                                                              
%ENDBLOCK HUBBARD                                                               
%BLOCK LATTICE_CART                                                             
ang                                                                             
27.84119898       0.00000000       0.00000000                                   
0.00000000      27.95738238       0.00000000                                    
0.00000000       0.00000000      26.56600724                                    
%ENDBLOCK LATTICE_CART                                                          
%BLOCK POSITIONS_ABS                                                            
ang                                                                             
Fe    13.173884    13.742508    12.629390                                       
O    12.487003    15.216457    11.715548                                        
O    12.021656    12.839535    13.778607                                        
O    14.949022    13.183696    12.458749                                        
H    11.521437    15.321142    11.607960                                        
C    16.135330    13.476680    11.401376                                        
H    11.206058    13.268654    14.103332                                        
C    13.110809    16.518993    10.952886                                        
H    15.349026    12.583928    13.117868                                        
C    11.991986    11.347914    14.495494                                        
H    13.410098    16.082048    10.000000                                        
H    13.954743    16.765435    11.596047                                        
C    12.052321    17.546968    10.871336                                        
H    11.199259    17.243452    10.257925                                        
H    12.520884    18.387317    10.331716                                        
H    11.741978    17.934890    11.842705                                        
H    12.512008    10.747941    13.750035                                        
C    10.582872    10.986856    14.735810                                        
H    12.589881    11.545131    15.385609                                        
H    10.000000    10.844665    13.824942                                        
H    10.077705    11.640593    15.452048                                        
H    10.640920    10.000000    15.229360                                        
H    16.598939    14.363538    11.835302                                        
H    15.578109    13.695123    10.491179                                        
C    17.003990    12.279982    11.334889                                        
H    17.512942    12.062730    12.278314                                        
H    17.801382    12.548706    10.622897                                        
H    16.503286    11.398566    10.932556                                        
%ENDBLOCK POSITIONS_ABS                                                         
%BLOCK SPECIES                                                                  
C C 6 -1 10.0                                                                   
Fe Fe 26 -1 10.0                                                                
H H 1 -1 10.0                                                                   
O O 8 -1 10.0                                                                   
%ENDBLOCK SPECIES                                                               
%BLOCK SPECIES_POT                                                              
C C.PBE-paw.abinit                                                              
Fe Fe.PBE-paw.abinit                                                            
H H.PBE-paw.abinit                                                              
O O.PBE-paw.abinit                                                              
%ENDBLOCK SPECIES_POT                                                           

--------------------------------------------------------------------------------
-------------------------------- END INPUT FILE --------------------------------
--------------------------------------------------------------------------------


 
 ESDF WARNING(1): "charge" (esdf_physical) has no units. Assume "e".
<<<<<<<<<<<<<<<<<<<<<<<<<<<<<<<<< Full system >>>>>>>>>>>>>>>>>>>>>>>>>>>>>>>>>>
<<<<<<<<<<<<<<<<<<<<<<<<<<< PAW Dataset information >>>>>>>>>>>>>>>>>>>>>>>>>>>
File: Fe.PBE-paw.abinit; rc = 2.12 bohr; shape type =  2; rshape = 1.81 bohr;
  Atomic number: 26;  ionic charge: 16.000000
    Partial Wave 1: l = 0
    Partial Wave 2: l = 0
    Partial Wave 3: l = 1
    Partial Wave 4: l = 1
    Partial Wave 5: l = 2
    Partial Wave 6: l = 2
  Core charge supplied for Nonlinear Core Corrections
File: O.PBE-paw.abinit; rc = 1.41 bohr; shape type =  2; rshape = 1.20 bohr;
  Atomic number:  8;  ionic charge:  6.000000
    Partial Wave 1: l = 0
    Partial Wave 2: l = 0
    Partial Wave 3: l = 1
    Partial Wave 4: l = 1
  Core charge supplied for Nonlinear Core Corrections
File: H.PBE-paw.abinit; rc = 0.90 bohr; shape type =  2; rshape = 0.80 bohr;
  Atomic number:  1;  ionic charge:  1.000000
    Partial Wave 1: l = 0
    Partial Wave 2: l = 0
    Partial Wave 3: l = 1
File: C.PBE-paw.abinit; rc = 1.51 bohr; shape type =  2; rshape = 1.30 bohr;
  Atomic number:  6;  ionic charge:  4.000000
    Partial Wave 1: l = 0
    Partial Wave 2: l = 0
    Partial Wave 3: l = 1
    Partial Wave 4: l = 1
  Core charge supplied for Nonlinear Core Corrections
<<<<<<<<<<<<<<<<<<<<<<<<<<<<<<<<<<<<<<< >>>>>>>>>>>>>>>>>>>>>>>>>>>>>>>>>>>>>>>

-------------------------- Atom counting information ---------------------------
Symbol    Natoms    Nngwfs    Nprojs
  Fe         1        13        18
  O          3        12        24
  H         18        18        90
  C          6        24        48
.......   ......    ......    ......
Totals:     28        67       180
--------------------------------------------------------------------------------

=============================== PSINC grid sizes ===============================
                      Simulation cell:  105 x 105 x  99
                              FFT-box:  105 x 105 x  99
                                  PPD:    5 x   5 x   1
Grid space d1=  0.501068965054a0 (KE cutoff=  30.25582Eh = 823.30288eV)
Grid space d2=  0.503159963219a0 (KE cutoff=  30.00488Eh = 816.47424eV)
Grid space d3=  0.507095739121a0 (KE cutoff=  29.54092Eh = 803.84945eV)
================================================================================

********************* Fourier parallelisation information **********************
       Coarse grid (whole simulation cell) dimensions:    105   105    99
          Real-space ('12') slabs/proc (min max mean):     16    17    16
         Recip-space ('23') slabs/proc (min max mean):      8     9     8
********************************************************************************

********************* Fourier parallelisation information **********************
       Double grid (whole simulation cell) dimensions:    210   210   198
          Real-space ('12') slabs/proc (min max mean):     33    33    33
         Recip-space ('23') slabs/proc (min max mean):     17    18    17
********************************************************************************

********************* Fourier parallelisation information **********************
         Fine grid (whole simulation cell) dimensions:    420   420   396
          Real-space ('12') slabs/proc (min max mean):     66    66    66
         Recip-space ('23') slabs/proc (min max mean):     35    36    35
********************************************************************************

Atom SCF Calculation for C  : Z (AE atom) =   6 : Z (PS atom) =   4
Config String: 2s2.0 2p2.0
Orbitals (num,occ):  2     2.00 2.00
Orbitals   (num,l):  2        0    1
Real-space Grid (nr,dr,rmax): 1503    0.0066577896   10.0000000000
Spherical Bessel Basis (nsws,lmax,cutoff):   37    2  176.3967570603
Confining potential (l,width,scale):  0    3.0000000000  100.0000000000
Confining potential (l,width,scale):  1    3.0000000000  100.0000000000
  1         -5.4381308884   -1.2721298092    4.5135250045   -1.9381135692
  2         -5.3849331102   -1.3649505469    4.4159511708   -1.9005879768
  3         -5.3930021612   -1.3849430624    4.3947033354   -1.8924421815
  4         -5.4001802281   -1.3891927246    4.3902388137   -1.8907518289
  5         -5.4037205329   -1.3915457087    4.3877695258   -1.8898885469
  6         -5.4055416859   -1.3928069742    4.3864477540   -1.8894519912
  7         -5.4065002767   -1.3934742451    4.3857498837   -1.8892319620
  8         -5.4070074727   -1.3938267709    4.3853820092   -1.8891207968
  9         -5.4072763209   -1.3940130896    4.3851880206   -1.8890645345
 10         -5.4074189962   -1.3941116277    4.3850856600   -1.8890360408
 11         -5.4074947717   -1.3941637823    4.3850316039   -1.8890216105
 12         -5.4075350443   -1.3941914082    4.3850030336   -1.8890143059
 13         -5.4075564617   -1.3942060527    4.3849879208   -1.8890106114
 14         -5.4075678586   -1.3942138217    4.3849799198   -1.8890087446
 15         -5.4075739267   -1.3942179465    4.3849756804   -1.8890078024
 16         -5.4075771595   -1.3942201380    4.3849734321   -1.8890073276
 17         -5.4075788827   -1.3942213034    4.3849722389   -1.8890070886
 18         -5.4075798017   -1.3942219235    4.3849716050   -1.8890069685
 19         -5.4075802921   -1.3942222537    4.3849712680   -1.8890069082
 20         -5.4075805539   -1.3942224296    4.3849710888   -1.8890068781
 21         -5.4075806938   -1.3942225235    4.3849709933   -1.8890068630
 22         -5.4075807686   -1.3942225735    4.3849709424   -1.8890068555
Atom SCF converged after  22 iterations to a total energy of     -5.40758077

Atom SCF Calculation for Fe : Z (AE atom) =  26 : Z (PS atom) =  16
Config String: 3s2.0 3p6.0 3d6.0 4s2.0 4p0.0
Orbitals (num,occ):  5     2.00 6.00 6.00 2.00 0.00
Orbitals   (num,l):  5        0    1    2    0    1
Real-space Grid (nr,dr,rmax): 1503    0.0066577896   10.0000000000
Spherical Bessel Basis (nsws,lmax,cutoff):   37    4  176.3967570603
Confining potential (l,width,scale):  0    3.0000000000  100.0000000000
Confining potential (l,width,scale):  1    3.0000000000  100.0000000000
Confining potential (l,width,scale):  2    3.0000000000  100.0000000000
  1       -111.4005172118  -52.5575611559   72.2164000725   -4.0901868950
  2       -116.6635475262  -20.5601904919   91.7007084249   -2.2962490369
  3       -121.6156136875  -23.2753453277   92.4544705195   -2.7706732816
  4       -123.0066153699  -21.4164712440   94.7136519632   -2.9394413820
  5       -123.8168122141  -22.6370400734   94.1384349420   -3.0798102909
  6       -123.9055073486  -21.7222843370   94.9342614757   -3.0846520419
  7       -124.0956886241  -22.4138747628   94.4617720360   -3.1224050559
  8       -124.0492758687  -21.8887017510   94.8692044073   -3.1096545890
  9       -124.1222324005  -22.2877514631   94.5777385101   -3.1254730624
 10       -124.0894611846  -22.0431086758   94.7620026738   -3.1177312036
 11       -124.1066906466  -22.1417456915   94.6895757605   -3.1215019185
 12       -124.1027421480  -22.1090398813   94.7144439268   -3.1205307857
 13       -124.1039552528  -22.1131641559   94.7116547863   -3.1207645739
 14       -124.1041718268  -22.1127261003   94.7121170471   -3.1207931979
 15       -124.1043563153  -22.1126782042   94.7122440208   -3.1208211382
 16       -124.1044853288  -22.1126702816   94.7123114748   -3.1208409484
 17       -124.1045734258  -22.1126674103   94.7123551926   -3.1208545095
 18       -124.1046334193  -22.1126657134   94.7123845864   -3.1208637603
 19       -124.1046742816  -22.1126645462   94.7124045128   -3.1208700757
 20       -124.1047021281  -22.1126636961   94.7124180731   -3.1208743926
 21       -124.1047211147  -22.1126630559   94.7124273290   -3.1208773473
 22       -124.1047340666  -22.1126625637   94.7124336643   -3.1208793718
 23       -124.1047429056  -22.1126621807   94.7124380116   -3.1208807606
 24       -124.1047489402  -22.1126618812   94.7124410017   -3.1208817142
 25       -124.1047530616  -22.1126616468   94.7124430628   -3.1208823696
 26       -124.1047558771  -22.1126614637   94.7124444863   -3.1208828204
 27       -124.1047578011  -22.1126613212   94.7124454714   -3.1208831306
 28       -124.1047591161  -22.1126612109   94.7124461541   -3.1208833444
 29       -124.1047600152  -22.1126611259   94.7124466281   -3.1208834917
 30       -124.1047606300  -22.1126610607   94.7124469575   -3.1208835933
 31       -124.1047610504  -22.1126610110   94.7124471869   -3.1208836634
 32       -124.1047613380  -22.1126609733   94.7124473467   -3.1208837118
 33       -124.1047615347  -22.1126609447   94.7124474583   -3.1208837453
 34       -124.1047616693  -22.1126609232   94.7124475361   -3.1208837684
 35       -124.1047617614  -22.1126609071   94.7124475906   -3.1208837843
Atom SCF converged after  35 iterations to a total energy of   -124.10476176

Atom SCF Calculation for H  : Z (AE atom) =   1 : Z (PS atom) =   1
Config String: 1s1.0
Orbitals (num,occ):  1     1.00
Orbitals   (num,l):  1        0
Real-space Grid (nr,dr,rmax): 1503    0.0066577896   10.0000000000
Spherical Bessel Basis (nsws,lmax,cutoff):   37    2  176.3967570603
Confining potential (l,width,scale):  0    3.0000000000  100.0000000000
  1         -0.3348525927   -0.2401819449    0.2820953128   -0.2388448411
  2         -0.4038948821   -0.2405504229    0.2866889240   -0.2416217444
  3         -0.4360732773   -0.2390089543    0.2890729861   -0.2443653791
  4         -0.4497314704   -0.2383264046    0.2899315599   -0.2456060208
  5         -0.4551901081   -0.2381357631    0.2901452306   -0.2460489407
  6         -0.4573594294   -0.2381000300    0.2901742710   -0.2461947705
  7         -0.4582326910   -0.2381004501    0.2901659451   -0.2462415077
  8         -0.4585900702   -0.2381055523    0.2901559649   -0.2462564278
  9         -0.4587384807   -0.2381092319    0.2901497571   -0.2462612174
 10         -0.4588008132   -0.2381112609    0.2901465144   -0.2462627659
 11         -0.4588272086   -0.2381122698    0.2901449456   -0.2462632682
 12         -0.4588384507   -0.2381127465    0.2901442163   -0.2462634302
 13         -0.4588432580   -0.2381129655    0.2901438848   -0.2462634814
 14         -0.4588453195   -0.2381130645    0.2901437362   -0.2462634968
 15         -0.4588462053   -0.2381131088    0.2901436700   -0.2462635011
 16         -0.4588465865   -0.2381131284    0.2901436407   -0.2462635020
 17         -0.4588467508   -0.2381131372    0.2901436278   -0.2462635020
 18         -0.4588468216   -0.2381131410    0.2901436222   -0.2462635019
Atom SCF converged after  18 iterations to a total energy of     -0.45884682

Atom SCF Calculation for O  : Z (AE atom) =   8 : Z (PS atom) =   6
Config String: 2s2.0 2p4.0
Orbitals (num,occ):  2     2.00 4.00
Orbitals   (num,l):  2        0    1
Real-space Grid (nr,dr,rmax): 1503    0.0066577896   10.0000000000
Spherical Bessel Basis (nsws,lmax,cutoff):   37    2  176.3967570603
Confining potential (l,width,scale):  0    3.0000000000  100.0000000000
Confining potential (l,width,scale):  1    3.0000000000  100.0000000000
  1         -8.3209332552   -7.4828484739   10.1554312602   -2.1270270195
  2        -15.1405599232   -3.0474882742   13.6590820486   -2.5134754209
  3        -15.5174094640   -3.1101891961   13.6243211040   -2.6472956001
  4        -15.7606118231   -3.0805775314   13.6668776248   -2.7100307789
  5        -15.8308896490   -3.0881936416   13.6633910567   -2.7338682066
  6        -15.8678540393   -3.0862312957   13.6673103078   -2.7443897972
  7        -15.8801393942   -3.0873360689   13.6669183555   -2.7485230919
  8        -15.8859601688   -3.0872977830   13.6672813272   -2.7502957173
  9        -15.8880580832   -3.0874730763   13.6672320183   -2.7510066526
 10        -15.8889924584   -3.0874981416   13.6672623218   -2.7513066537
 11        -15.8893459980   -3.0875277929   13.6672548500   -2.7514284384
 12        -15.8894977936   -3.0875355600   13.6672566096   -2.7514793465
 13        -15.8895569380   -3.0875407304   13.6672553199   -2.7515001537
 14        -15.8895817884   -3.0875424467   13.6672552475   -2.7515088021
 15        -15.8895916441   -3.0875433561   13.6672550136   -2.7515123499
 16        -15.8895957327   -3.0875436929   13.6672549605   -2.7515138192
 17        -15.8895973717   -3.0875438525   13.6672549179   -2.7515144231
 18        -15.8895980466   -3.0875439149   13.6672549044   -2.7515146726
 19        -15.8895983189   -3.0875439428   13.6672548968   -2.7515147752
 20        -15.8895984306   -3.0875439540   13.6672548940   -2.7515148175
 21        -15.8895984758   -3.0875439588   13.6672548927   -2.7515148349
Atom SCF converged after  21 iterations to a total energy of    -15.88959848

Atom SCF Calculation for C  : Z (AE atom) =   6 : Z (PS atom) =   4
Config String: 2s2.0 2p2.0
Orbitals (num,occ):  2     2.00 2.00
Orbitals   (num,l):  2        0    1
Real-space Grid (nr,dr,rmax): 1503    0.0066577896   10.0000000000
Spherical Bessel Basis (nsws,lmax,cutoff):   37    2  176.3967570603
Confining potential (l,width,scale):  0    3.0000000000  100.0000000000
Confining potential (l,width,scale):  1    3.0000000000  100.0000000000
  1         -5.4381308884   -1.2721298092    4.5135250045   -1.9381135692
  2         -5.3849331102   -1.3649505469    4.4159511708   -1.9005879768
  3         -5.3930021612   -1.3849430624    4.3947033354   -1.8924421815
  4         -5.4001802281   -1.3891927246    4.3902388137   -1.8907518289
  5         -5.4037205329   -1.3915457087    4.3877695258   -1.8898885469
  6         -5.4055416859   -1.3928069742    4.3864477540   -1.8894519912
  7         -5.4065002767   -1.3934742451    4.3857498837   -1.8892319620
  8         -5.4070074727   -1.3938267709    4.3853820092   -1.8891207968
  9         -5.4072763209   -1.3940130896    4.3851880206   -1.8890645345
 10         -5.4074189962   -1.3941116277    4.3850856600   -1.8890360408
 11         -5.4074947717   -1.3941637823    4.3850316039   -1.8890216105
 12         -5.4075350443   -1.3941914082    4.3850030336   -1.8890143059
 13         -5.4075564617   -1.3942060527    4.3849879208   -1.8890106114
 14         -5.4075678586   -1.3942138217    4.3849799198   -1.8890087446
 15         -5.4075739267   -1.3942179465    4.3849756804   -1.8890078024
 16         -5.4075771595   -1.3942201380    4.3849734321   -1.8890073276
 17         -5.4075788827   -1.3942213034    4.3849722389   -1.8890070886
 18         -5.4075798017   -1.3942219235    4.3849716050   -1.8890069685
 19         -5.4075802921   -1.3942222537    4.3849712680   -1.8890069082
 20         -5.4075805539   -1.3942224296    4.3849710888   -1.8890068781
 21         -5.4075806938   -1.3942225235    4.3849709933   -1.8890068630
 22         -5.4075807686   -1.3942225735    4.3849709424   -1.8890068555
Atom SCF converged after  22 iterations to a total energy of     -5.40758077

Atom SCF Calculation for Fe : Z (AE atom) =  26 : Z (PS atom) =  16
Config String: 3s2.0 3p6.0 3d6.0 4s2.0 4p0.0
Orbitals (num,occ):  5     2.00 6.00 6.00 2.00 0.00
Orbitals   (num,l):  5        0    1    2    0    1
Real-space Grid (nr,dr,rmax): 1503    0.0066577896   10.0000000000
Spherical Bessel Basis (nsws,lmax,cutoff):   37    4  176.3967570603
Confining potential (l,width,scale):  0    3.0000000000  100.0000000000
Confining potential (l,width,scale):  1    3.0000000000  100.0000000000
Confining potential (l,width,scale):  2    3.0000000000  100.0000000000
  1       -111.4005172118  -52.5575611559   72.2164000725   -4.0901868950
  2       -116.6635475262  -20.5601904919   91.7007084249   -2.2962490369
  3       -121.6156136875  -23.2753453277   92.4544705195   -2.7706732816
  4       -123.0066153699  -21.4164712440   94.7136519632   -2.9394413820
  5       -123.8168122141  -22.6370400734   94.1384349420   -3.0798102909
  6       -123.9055073486  -21.7222843370   94.9342614757   -3.0846520419
  7       -124.0956886241  -22.4138747628   94.4617720360   -3.1224050559
  8       -124.0492758687  -21.8887017510   94.8692044073   -3.1096545890
  9       -124.1222324005  -22.2877514631   94.5777385101   -3.1254730624
 10       -124.0894611846  -22.0431086758   94.7620026738   -3.1177312036
 11       -124.1066906466  -22.1417456915   94.6895757605   -3.1215019185
 12       -124.1027421480  -22.1090398813   94.7144439268   -3.1205307857
 13       -124.1039552528  -22.1131641559   94.7116547863   -3.1207645739
 14       -124.1041718268  -22.1127261003   94.7121170471   -3.1207931979
 15       -124.1043563153  -22.1126782042   94.7122440208   -3.1208211382
 16       -124.1044853288  -22.1126702816   94.7123114748   -3.1208409484
 17       -124.1045734258  -22.1126674103   94.7123551926   -3.1208545095
 18       -124.1046334193  -22.1126657134   94.7123845864   -3.1208637603
 19       -124.1046742816  -22.1126645462   94.7124045128   -3.1208700757
 20       -124.1047021281  -22.1126636961   94.7124180731   -3.1208743926
 21       -124.1047211147  -22.1126630559   94.7124273290   -3.1208773473
 22       -124.1047340666  -22.1126625637   94.7124336643   -3.1208793718
 23       -124.1047429056  -22.1126621807   94.7124380116   -3.1208807606
 24       -124.1047489402  -22.1126618812   94.7124410017   -3.1208817142
 25       -124.1047530616  -22.1126616468   94.7124430628   -3.1208823696
 26       -124.1047558771  -22.1126614637   94.7124444863   -3.1208828204
 27       -124.1047578011  -22.1126613212   94.7124454714   -3.1208831306
 28       -124.1047591161  -22.1126612109   94.7124461541   -3.1208833444
 29       -124.1047600152  -22.1126611259   94.7124466281   -3.1208834917
 30       -124.1047606300  -22.1126610607   94.7124469575   -3.1208835933
 31       -124.1047610504  -22.1126610110   94.7124471869   -3.1208836634
 32       -124.1047613380  -22.1126609733   94.7124473467   -3.1208837118
 33       -124.1047615347  -22.1126609447   94.7124474583   -3.1208837453
 34       -124.1047616693  -22.1126609232   94.7124475361   -3.1208837684
 35       -124.1047617614  -22.1126609071   94.7124475906   -3.1208837843
Atom SCF converged after  35 iterations to a total energy of   -124.10476176

Atom SCF Calculation for H  : Z (AE atom) =   1 : Z (PS atom) =   1
Config String: 1s1.0
Orbitals (num,occ):  1     1.00
Orbitals   (num,l):  1        0
Real-space Grid (nr,dr,rmax): 1503    0.0066577896   10.0000000000
Spherical Bessel Basis (nsws,lmax,cutoff):   37    2  176.3967570603
Confining potential (l,width,scale):  0    3.0000000000  100.0000000000
  1         -0.3348525927   -0.2401819449    0.2820953128   -0.2388448411
  2         -0.4038948821   -0.2405504229    0.2866889240   -0.2416217444
  3         -0.4360732773   -0.2390089543    0.2890729861   -0.2443653791
  4         -0.4497314704   -0.2383264046    0.2899315599   -0.2456060208
  5         -0.4551901081   -0.2381357631    0.2901452306   -0.2460489407
  6         -0.4573594294   -0.2381000300    0.2901742710   -0.2461947705
  7         -0.4582326910   -0.2381004501    0.2901659451   -0.2462415077
  8         -0.4585900702   -0.2381055523    0.2901559649   -0.2462564278
  9         -0.4587384807   -0.2381092319    0.2901497571   -0.2462612174
 10         -0.4588008132   -0.2381112609    0.2901465144   -0.2462627659
 11         -0.4588272086   -0.2381122698    0.2901449456   -0.2462632682
 12         -0.4588384507   -0.2381127465    0.2901442163   -0.2462634302
 13         -0.4588432580   -0.2381129655    0.2901438848   -0.2462634814
 14         -0.4588453195   -0.2381130645    0.2901437362   -0.2462634968
 15         -0.4588462053   -0.2381131088    0.2901436700   -0.2462635011
 16         -0.4588465865   -0.2381131284    0.2901436407   -0.2462635020
 17         -0.4588467508   -0.2381131372    0.2901436278   -0.2462635020
 18         -0.4588468216   -0.2381131410    0.2901436222   -0.2462635019
Atom SCF converged after  18 iterations to a total energy of     -0.45884682

Atom SCF Calculation for O  : Z (AE atom) =   8 : Z (PS atom) =   6
Config String: 2s2.0 2p4.0
Orbitals (num,occ):  2     2.00 4.00
Orbitals   (num,l):  2        0    1
Real-space Grid (nr,dr,rmax): 1503    0.0066577896   10.0000000000
Spherical Bessel Basis (nsws,lmax,cutoff):   37    2  176.3967570603
Confining potential (l,width,scale):  0    3.0000000000  100.0000000000
Confining potential (l,width,scale):  1    3.0000000000  100.0000000000
  1         -8.3209332552   -7.4828484739   10.1554312602   -2.1270270195
  2        -15.1405599232   -3.0474882742   13.6590820486   -2.5134754209
  3        -15.5174094640   -3.1101891961   13.6243211040   -2.6472956001
  4        -15.7606118231   -3.0805775314   13.6668776248   -2.7100307789
  5        -15.8308896490   -3.0881936416   13.6633910567   -2.7338682066
  6        -15.8678540393   -3.0862312957   13.6673103078   -2.7443897972
  7        -15.8801393942   -3.0873360689   13.6669183555   -2.7485230919
  8        -15.8859601688   -3.0872977830   13.6672813272   -2.7502957173
  9        -15.8880580832   -3.0874730763   13.6672320183   -2.7510066526
 10        -15.8889924584   -3.0874981416   13.6672623218   -2.7513066537
 11        -15.8893459980   -3.0875277929   13.6672548500   -2.7514284384
 12        -15.8894977936   -3.0875355600   13.6672566096   -2.7514793465
 13        -15.8895569380   -3.0875407304   13.6672553199   -2.7515001537
 14        -15.8895817884   -3.0875424467   13.6672552475   -2.7515088021
 15        -15.8895916441   -3.0875433561   13.6672550136   -2.7515123499
 16        -15.8895957327   -3.0875436929   13.6672549605   -2.7515138192
 17        -15.8895973717   -3.0875438525   13.6672549179   -2.7515144231
 18        -15.8895980466   -3.0875439149   13.6672549044   -2.7515146726
 19        -15.8895983189   -3.0875439428   13.6672548968   -2.7515147752
 20        -15.8895984306   -3.0875439540   13.6672548940   -2.7515148175
 21        -15.8895984758   -3.0875439588   13.6672548927   -2.7515148349
Atom SCF converged after  21 iterations to a total energy of    -15.88959848

BC: Task: SINGLEPOINT
BC: +++++++++++++++ Summary of boundary conditions ++++++++++++++
BC: |       Component       |     Keyword     |   Periodicity   |
BC: |                       |                 |     X  Y  Z [1] |
BC: |-----------------------------------------------------------|
BC: | Ion-ion               | ion_ion_bc [2]  |     P  P  P     |
BC: | Local pseudopotential | pspot_bc [3]    |     P  P  P     |
BC: +++++++++++++++++++++++++++++++++++++++++++++++++++++++++++++
BC: P: Periodic, O: Open.
BC: [1] Not strictly along X, Y, Z but rather along lattice vectors A1, A2, A3.
BC: [2] Also affected by: pbc_correction_cutoff, cutoff_coulomb_type,
BC:     is_smeared_ion_rep, is_implicit_solvent, openbc_ion_ion.
BC: [3] Also affected by: is_smeared_ion_rep, is_implicit_solvent, openbc_pspot.

Determining parallel strategy ...
... using space-filling curve
... NGWF load balancing: max     13;  min     10;  average     11
... Projector load balancing: max     38;  min     18;  average     30
... Hubbard Projector load balancing: max      5;  min      0;  average      1
... done
Calculating Ewald energy ...
              Ewald: real-space energy =          278.330967
        Ewald: reciprocal-space energy =           43.848049
         Ewald: (sum_charge)**2 energy =           18.336174
         Ewald: (sum_charge**2) energy =           16.058998
                          Ewald energy =          287.783842
Basis initialisation ...
... NGWF spheres initialised
... Projector spheres initialised
... Hubbard Projector spheres initialised
... NGWF tight boxes initialised
... Projector tight boxes initialised
... Tight-boxes gathered
... NGWF basis size (local,global):        185807       967257
... PAW projector initialisation
... done

============================= Charge Augmentation ==============================
                           Aug box size:   35 x  35 x  35
================================================================================
... Hubbard projector initialisation

========================== Sparse matrix information ===========================
                        Overlap matrix filling: 100.00%
                        Density kernel filling: 100.00% (known to be dense)
              NGWF-Proj overlap matrix filling:  76.35%
                    Aug Overlap matrix filling: 100.00%
      NGWF-Hubbard Proj overlap matrix filling: 100.00%
                             VW matrix filling: 100.00%
                    Hamiltonian matrix filling: 100.00%
                  NGWF diagonal matrix filling:   7.37%
                             KS matrix filling: 100.00% 
                           KSKS matrix filling: 100.00% 
================================================================================

Sparse matrix initialisation ...
 done
NGWF initialisation ... done
============ Calculation of NGWF S^-1 using Hotelling algorithm ================ 
     Iteration  |  Spin  |  Frobenius norm and Maximum abs value (of I-S*S_n^-1)
         1           1      0.78310568E+01     0.97187145E+00
         2           1      0.75554089E+01     0.94455199E+00
         3           1      0.71428801E+01     0.89224194E+00
         4           1      0.65914788E+01     0.79630123E+00
         5           1      0.59278266E+01     0.69510269E+00
         6           1      0.52316867E+01     0.66773248E+00
         7           1      0.46125638E+01     0.63631516E+00
         8           1      0.40052497E+01     0.58502662E+00
         9           1      0.32140446E+01     0.49843544E+00
        10           1      0.21906212E+01     0.36429108E+00
        11           1      0.10937027E+01     0.19762249E+00
        12           1      0.31181344E+00     0.60719727E-01
        13           1      0.33388947E-01     0.65057447E-02
        14           1      0.53232128E-03     0.96480986E-04
        15           1      0.16904364E-06     0.27904516E-07
        16           1      0.20513146E-13     0.31858468E-14
================================================================================
 done

################################################################################
DFT+U information on atom      1 of Hubbard species Fe  
################################################################################
Using the on-atom contravariant metric, the NGWF hydrogenic character
| < \phi | \psi > |**2 matrix of Hubbard site      1 is 
  m_l =   -2          -1           0           1           2         SUM
 -0.00000000 -0.00000000  0.00000000 -0.00000000  0.00000000  0.00000000
  0.00000000  0.00000000 -0.00000000  0.00000000 -0.00000001 -0.00000001
  0.00000000  0.00000000 -0.00000000  0.00000000 -0.00000000 -0.00000000
 -0.00000000  0.00000000 -0.00000000 -0.00000000 -0.00000001 -0.00000001
  0.25524075 -0.00000000  0.00000000  0.00000000 -0.00000000  0.25524075
 -0.00000000  0.25518232  0.00000000  0.00000000 -0.00000000  0.25518232
  0.00000000  0.00000000  0.25665906  0.00000000 -0.00000000  0.25665906
  0.00000000  0.00000000  0.00000000  0.25514097 -0.00000000  0.25514097
 -0.00000000 -0.00000000 -0.00000000 -0.00000000  0.25673803  0.25673803
 -0.00000000  0.00000000 -0.00000000  0.00000000  0.00000000 -0.00000000
  0.00000000 -0.00000000 -0.00000000 -0.00000000  0.00000000  0.00000000
 -0.00000000  0.00000000 -0.00000000  0.00000000  0.00000000 -0.00000000
  0.00000000 -0.00000000  0.00000000  0.00000000  0.00000000  0.00000001
Total hydrogenic projection of NGWFs on this atom             1.27896112
################################################################################


################################################################################
Using the subspace contravariant metric, the NGWF hydrogenic character
| < \phi | \psi > |**2 matrix of Hubbard site      1 is 
  m_l =   -2          -1           0           1           2         SUM
  0.25524061 -0.00000000  0.00000000  0.00000000 -0.00000000  0.25524061
 -0.00000000  0.25518221  0.00000000  0.00000000 -0.00000000  0.25518221
  0.00000000  0.00000000  0.25665893  0.00000000 -0.00000000  0.25665893
  0.00000000  0.00000000  0.00000000  0.25514086 -0.00000000  0.25514086
 -0.00000000 -0.00000000 -0.00000000 -0.00000000  0.25673779  0.25673779
Total hydrogenic projection of NGWFs on this correlated site  1.27896040
################################################################################

Calculating core density ...
================================= Core Density =================================
               Core den box size:   39 x  39 x  39
================================================================================
 ... done
Density renormalisation, spin  1 ...
Target Charge:    39.000000000000 ; Input Charge:    38.000447845725
Density renormalisation, spin  2 ...
Target Charge:    34.000000000000 ; Input Charge:    38.000447845725
Density kernel initialisation
 
======= Optimisation of K by Palser-Manolopoulos canonical purification ======== 
         Iteration  |  Band structure energy |    c_n   
               1         -37.51459369648935    0.5685145
               2         -38.52856885034341    0.5626325
               3         -39.68413551623556    0.5549142
               4         -40.97996420748171    0.5463525
               5         -42.49012041616515    0.5368429
               6         -44.24717770548018    0.5282940
               7         -46.07238122511197    0.5308124
               8         -47.53955977078547    0.5605979
               9         -48.31513523000558    0.6047549
              10         -48.62126996495920    0.6123867
              11         -48.77346526160655    0.5870692
              12         -48.86457641030411    0.5578606
              13         -48.90825846473798    0.5300026
              14         -48.92133113230351    0.5057735
              15         -48.92323316315503    0.5001570
              16         -48.92328363174468    0.5000001
              17         -48.92328366793046    0.4647582
              18         -48.92328366793048    0.4647582
Termination criterion satisfied: band energy change below threshold.
Final occupancy bounds: [    0.00000000000000:    1.00000000000000]
Closest occupancy to 0.5:     1.00000000000000
================================================================================
 
======= Optimisation of K by Palser-Manolopoulos canonical purification ======== 
         Iteration  |  Band structure energy |    c_n   
               1         -34.14293952753816    0.4944358
               2         -35.57014540582599    0.4876965
               3         -37.10349203668783    0.4810553
               4         -38.67548119029730    0.4805304
               5         -40.43631738188654    0.4888846
               6         -42.28288979120353    0.5190483
               7         -43.74514892937792    0.5828737
               8         -44.44222432840093    0.6411119
               9         -44.70916561036003    0.6681333
              10         -44.82925261159556    0.6603108
              11         -44.89809913974015    0.6198284
              12         -44.95609814846350    0.5662357
              13         -45.00672661239798    0.4953349
              14         -45.04599326796624    0.3611471
              15         -45.05850183094321    0.2466397
              16         -45.06049276537268    0.2408978
              17         -45.06123935205998    0.2620440
              18         -45.06200287630551    0.2890065
              19         -45.06278878313759    0.3222426
              20         -45.06357635022889    0.3623218
              21         -45.06433712477177    0.4084251
              22         -45.06502706905279    0.4549541
              23         -45.06557791543538    0.4882029
              24         -45.06591481182778    0.4991754
              25         -45.06602951944923    0.4999961
              26         -45.06604070605356    0.5000000
              27         -45.06604080178867    0.5000010
              28         -45.06604080179559    0.5000010
Termination criterion satisfied: band energy change below threshold.
Final occupancy bounds: [    0.00000000000000:    1.00000000000000]
Closest occupancy to 0.5:     1.00000000000000
================================================================================

Writing density kernel to file "Fe_EtOH_3_HighSpin.dkn" ... done

>>> Optimising kernel for current NGWFs:
   Initial electron number for spin 1:      39.00000000
   Initial electron number for spin 2:      34.00000000
     Final electron number for spin 1:      39.00000000
     Final electron number for spin 2:      34.00000000

=================== Penalty functional idempotency correction ==================
 RMS occupancy error at iteration   1:  0.000000 (step -0.5000 Ne1=     39.0000)
                                                               Ne2=     34.0000
            Final RMS occupancy error   :  0.000000 (Ne1=     39.0000)
                                                     Ne2=     34.0000
            Final occupancy bounds spin 1: [ -0.000,  1.000]
            Final occupancy bounds spin 2: [ -0.000,  1.000]
================================================================================

................................................................................
<<<<<<<<<<<<<< LNV (Original version) density kernel optimisation >>>>>>>>>>>>>>
~~~~~~~~~~~~~~~~~~~~~~~~~~~~~~~~~~~~~~~~~~~~~~~~~~~~~~~~~~~~~~~~~~~~~~~~~~~~~~~~
   iter  |      energy (Eh)       | rms gradient |  commutator  |   dE (Eh)

################################################################################
DFT+U information on atom      1 of Hubbard species Fe  
################################################################################
Occupancy matrix of Hubbard site      1 and spin      1 is 
  m_l =   -2          -1           0           1           2
  0.99932933 -0.00018415 -0.00023206  0.00058059  0.00027229
 -0.00018404  1.00011519 -0.00009345  0.00026003  0.00004943
 -0.00023191 -0.00009343  0.99994398  0.00028603 -0.00000589
  0.00058034  0.00026004  0.00028610  0.99921957  0.00010674
  0.00027232  0.00004946 -0.00000593  0.00010687  0.99962569
WARNING: OCCUPANCY MATRIX of Hubbard site      1 and spin      1 exceeeds 1.
################################################################################
Occupancy matrix of Hubbard site      1 and spin      2 is 
  m_l =   -2          -1           0           1           2
  0.99881090 -0.00032474 -0.00027528  0.00097217  0.00012961
 -0.00032459  0.99999525 -0.00007961  0.00035300  0.00008863
 -0.00027513 -0.00007960  0.99973865  0.00042612 -0.00013250
  0.00097177  0.00035302  0.00042621  0.99855136  0.00035066
  0.00012961  0.00008867 -0.00013265  0.00035095  0.99945168
################################################################################
Total occupancy of Hubbard site      1 is         9.99478158 e
Local magnetic moment of Hubbard site      1 is   0.00168591 mu_B
DFT+U energy of Hubbard site      1 is            0.00038284 Ha
################################################################################

      ideal mu1:      -0.043872939471
      ideal mu2:       0.080732015335
             Q0:        -207.732329214081
             G0:     -13.833841588734
   RMS gradient:       0.078507580695
    Initial Ne1:      39.00000000
    Initial Ne2:      34.00000000
      Final Ne1:      39.00000000
      Final Ne2:      34.00000000

=================== Penalty functional idempotency correction ==================
 RMS occupancy error at iteration   1:  0.003636 (step -0.4884 Ne1=     39.0000)
                                                               Ne2=     34.0000
 RMS occupancy error at iteration   2:  0.000029 (step -0.5000 Ne1=     39.0000)
                                                               Ne2=     34.0000
            Final RMS occupancy error   :  0.000000 (Ne1=     39.0000)
                                                     Ne2=     34.0000
            Final occupancy bounds spin 1: [  0.000,  1.000]
            Final occupancy bounds spin 2: [  0.000,  1.000]
================================================================================

    1        -2.077323292141E+02     7.8508E-02     5.1420E-02

################################################################################
DFT+U information on atom      1 of Hubbard species Fe  
################################################################################
Occupancy matrix of Hubbard site      1 and spin      1 is 
  m_l =   -2          -1           0           1           2
  0.99552795 -0.00077156 -0.00189576  0.00288540  0.00103152
 -0.00077121  0.99675948 -0.00079002 -0.00031475 -0.00064942
 -0.00189458 -0.00078984  0.99884721  0.00062989  0.00093789
  0.00288436 -0.00031469  0.00062990  0.99582799  0.00154644
  0.00103154 -0.00064980  0.00093876  0.00154744  0.99643957
################################################################################
Occupancy matrix of Hubbard site      1 and spin      2 is 
  m_l =   -2          -1           0           1           2
  0.99372530 -0.00123159 -0.00215764  0.00431711  0.00039343
 -0.00123109  0.99630984 -0.00073603 -0.00001343 -0.00053379
 -0.00215638 -0.00073590  0.99830029  0.00108669  0.00058951
  0.00431555 -0.00001335  0.00108676  0.99360396  0.00240039
  0.00039330 -0.00053413  0.00059008  0.00240193  0.99588006
################################################################################
Total occupancy of Hubbard site      1 is         9.96122165 e
Local magnetic moment of Hubbard site      1 is   0.00558276 mu_B
DFT+U energy of Hubbard site      1 is            0.00282968 Ha
################################################################################

      ideal mu1:      -0.158483987426
      ideal mu2:      -0.043694548201
             Q0:        -208.981673474157
             G0:     -19.843554856779
   RMS gradient:       0.069474305295
    Initial Ne1:      38.99999993
    Initial Ne2:      33.99999994
      Final Ne1:      39.00000000
      Final Ne2:      34.00000000

=================== Penalty functional idempotency correction ==================
 RMS occupancy error at iteration   1:  0.015867 (step -0.4507 Ne1=     39.0000)
                                                               Ne2=     34.0000
 RMS occupancy error at iteration   2:  0.000576 (step -0.5011 Ne1=     39.0000)
                                                               Ne2=     34.0000
 RMS occupancy error at iteration   3:  0.000003 (step -0.5000 Ne1=     39.0000)
                                                               Ne2=     34.0000
            Final RMS occupancy error   :  0.000000 (Ne1=     39.0000)
                                                     Ne2=     34.0000
            Final occupancy bounds spin 1: [  0.000,  1.000]
            Final occupancy bounds spin 2: [  0.000,  1.000]
================================================================================

    2        -2.089816734742E+02     6.9474E-02     4.5614E-02    -1.2493E+00

################################################################################
DFT+U information on atom      1 of Hubbard species Fe  
################################################################################
Occupancy matrix of Hubbard site      1 and spin      1 is 
  m_l =   -2          -1           0           1           2
  0.97608730 -0.00390698 -0.01057117  0.01407238  0.00494935
 -0.00390545  0.97702384 -0.00460121 -0.00421346 -0.00459580
 -0.01056458 -0.00460017  0.99251083  0.00172317  0.00641962
  0.01406755 -0.00421312  0.00172264  0.97839219  0.00939213
  0.00494932 -0.00459846  0.00642579  0.00939775  0.97916780
################################################################################
Occupancy matrix of Hubbard site      1 and spin      2 is 
  m_l =   -2          -1           0           1           2
  0.96933222 -0.00555619 -0.01164916  0.01927994  0.00225593
 -0.00555416  0.97504174 -0.00427042 -0.00317772 -0.00414472
 -0.01164224 -0.00426964  0.99055831  0.00333744  0.00523488
  0.01927327 -0.00317734  0.00333710  0.97035135  0.01249779
  0.00225529 -0.00414725  0.00524009  0.01250531  0.97708574
################################################################################
Total occupancy of Hubbard site      1 is         9.78555132 e
Local magnetic moment of Hubbard site      1 is   0.02081260 mu_B
DFT+U energy of Hubbard site      1 is            0.01519102 Ha
################################################################################

      ideal mu1:      -0.358616453262
      ideal mu2:      -0.272213850524
             Q0:        -210.627207348795
             G0:     -17.660516869008
   RMS gradient:       0.059591021018
    Initial Ne1:      38.99999995
    Initial Ne2:      33.99999995
      Final Ne1:      39.00000000
      Final Ne2:      34.00000000

=================== Penalty functional idempotency correction ==================
 RMS occupancy error at iteration   1:  0.032118 (step -0.4029 Ne1=     39.0000)
                                                               Ne2=     34.0000
 RMS occupancy error at iteration   2:  0.002426 (step -0.5046 Ne1=     39.0000)
                                                               Ne2=     34.0000
 RMS occupancy error at iteration   3:  0.000056 (step -0.5004 Ne1=     39.0000)
                                                               Ne2=     34.0000
            Final RMS occupancy error   :  0.000000 (Ne1=     39.0000)
                                                     Ne2=     34.0000
            Final occupancy bounds spin 1: [ -0.000,  1.000]
            Final occupancy bounds spin 2: [ -0.000,  1.000]
================================================================================

    3        -2.106272073488E+02     5.9591E-02     3.9251E-02    -1.6455E+00

################################################################################
DFT+U information on atom      1 of Hubbard species Fe  
################################################################################
Occupancy matrix of Hubbard site      1 and spin      1 is 
  m_l =   -2          -1           0           1           2
  0.92669334 -0.01188379 -0.03237139  0.04206959  0.01514637
 -0.01187927  0.92504053 -0.01424956 -0.01448749 -0.01518272
 -0.03235119 -0.01424639  0.97562918  0.00417314  0.02052720
  0.04205522 -0.01448645  0.00417109  0.93361286  0.02979138
  0.01514635 -0.01519149  0.02054702  0.02980895  0.93385983
################################################################################
Occupancy matrix of Hubbard site      1 and spin      2 is 
  m_l =   -2          -1           0           1           2
  0.90874617 -0.01609498 -0.03477411  0.05427242  0.00748233
 -0.01608936  0.91832034 -0.01253278 -0.01191282 -0.01359860
 -0.03475333 -0.01253065  0.96941185  0.00808618  0.01729917
  0.05425385 -0.01191171  0.00808465  0.91286291  0.03729087
  0.00748060 -0.01360681  0.01731645  0.03731294  0.92807297
################################################################################
Total occupancy of Hubbard site      1 is         9.33224997 e
Local magnetic moment of Hubbard site      1 is   0.05742150 mu_B
DFT+U energy of Hubbard site      1 is            0.04372791 Ha
################################################################################

      ideal mu1:      -0.585269459896
      ideal mu2:      -0.539101338921
             Q0:        -211.839100882081
             G0:     -11.984541955790
   RMS gradient:       0.052247637556
    Initial Ne1:      39.00000028
    Initial Ne2:      34.00000005
      Final Ne1:      39.00000000
      Final Ne2:      34.00000000

=================== Penalty functional idempotency correction ==================
 RMS occupancy error at iteration   1:  0.046630 (step -0.3609 Ne1=     39.0000)
                                                               Ne2=     34.0000
 RMS occupancy error at iteration   2:  0.005027 (step -0.5075 Ne1=     39.0000)
                                                               Ne2=     34.0000
 RMS occupancy error at iteration   3:  0.000242 (step -0.5017 Ne1=     39.0000)
                                                               Ne2=     34.0000
            Final RMS occupancy error   :  0.000000 (Ne1=     39.0000)
                                                     Ne2=     34.0000
            Final occupancy bounds spin 1: [ -0.000,  1.000]
            Final occupancy bounds spin 2: [ -0.000,  1.000]
================================================================================

    4        -2.118391008821E+02     5.2248E-02     3.4506E-02    -1.2119E+00

################################################################################
DFT+U information on atom      1 of Hubbard species Fe  
################################################################################
Occupancy matrix of Hubbard site      1 and spin      1 is 
  m_l =   -2          -1           0           1           2
  0.84968060 -0.02492007 -0.06554115  0.08452751  0.03206730
 -0.02491075  0.83969689 -0.02981383 -0.03143282 -0.03197736
 -0.06550014 -0.02980718  0.94736495  0.00738431  0.04241053
  0.08449852 -0.03143067  0.00737964  0.86242136  0.06238922
  0.03206765 -0.03199584  0.04245149  0.06242580  0.86018758
################################################################################
Occupancy matrix of Hubbard site      1 and spin      2 is 
  m_l =   -2          -1           0           1           2
  0.81545670 -0.03224248 -0.06793432  0.10217995  0.01663042
 -0.03223165  0.82322549 -0.02377797 -0.02656809 -0.02742109
 -0.06789354 -0.02377436  0.93107000  0.01375694  0.03550805
  0.10214504 -0.02656592  0.01375340  0.82397635  0.07380333
  0.01662758 -0.02743764  0.03554354  0.07384665  0.84798290
################################################################################
Total occupancy of Hubbard site      1 is         8.60106282 e
Local magnetic moment of Hubbard site      1 is   0.11763995 mu_B
DFT+U energy of Hubbard site      1 is            0.08020173 Ha
################################################################################

      ideal mu1:      -0.779906026500
      ideal mu2:      -0.774616784228
    5        -2.125177493551E+02     5.1004E-02     3.3628E-02    -6.7865E-01
Finished density kernel iterations (   5)

Writing density kernel to file "Fe_EtOH_3_HighSpin.dkn" ... done


>>> Density kernel optimised for the current NGWF basis:
     ~~~~~~~~~~~~~~~~~~~~~~~~~~~~~~~~~~~~~~~~~~~~~~~~~~~~~~~~~~~
     Total energy                =  -2.12517749355094E+02  Eh
     Estimated bandgap (UP spin) =  -7.3323E-01  Eh
     Estimated bandgap (DN spin) =  -1.0804E+00  Eh
     RMS occupancy error         =   4.6997E-07
     [H,K] commutator            =   3.3628E-02
     UP spin occupancy bounds    = [ -0.000:  1.000]
     DN spin occupancy bounds    = [ -0.000:  1.000]
     ~~~~~~~~~~~~~~~~~~~~~~~~~~~~~~~~~~~~~~~~~~~~~~~~~~~~~~~~~~~




################################################################################
########################### NGWF CG iteration  001 #############################
################################################################################
****** Reciprocal space K.E. preconditioning with k_zero =  3.0000 a0^-1 *******

>>> Checking for convergence of NGWFs:   NOT CONVERGED
  ========================================================================
         NGWF RMS gradient =  1.3165E-03 >  2.0000E-06  | above tolerance
  ========================================================================

>>> Improving NGWFs using line search:
============ Calculation of NGWF S^-1 using Hotelling algorithm ================ 
     Iteration  |  Spin  |  Frobenius norm and Maximum abs value (of I-S*S_n^-1)
         1           1      0.69850240E-01     0.17458105E-01
         2           1      0.73524275E-03     0.20587044E-03
         3           1      0.14917687E-06     0.48218660E-07
         4           1      0.97355343E-14     0.37747583E-14
================================================================================

################################################################################
DFT+U information on atom      1 of Hubbard species Fe  
################################################################################
Occupancy matrix of Hubbard site      1 and spin      1 is 
  m_l =   -2          -1           0           1           2
  0.84383589 -0.02592430 -0.06771836  0.08787439  0.03337955
 -0.02591456  0.83433265 -0.03084167 -0.03216540 -0.03297364
 -0.06767600 -0.03083479  0.94526758  0.00792702  0.04358396
  0.08784420 -0.03216317  0.00792227  0.85671042  0.06463712
  0.03337996 -0.03299268  0.04362604  0.06467509  0.85481000
################################################################################
Occupancy matrix of Hubbard site      1 and spin      2 is 
  m_l =   -2          -1           0           1           2
  0.80846260 -0.03349137 -0.07006494  0.10583714  0.01740671
 -0.03348009  0.81705977 -0.02446903 -0.02717088 -0.02815900
 -0.07002290 -0.02446534  0.92819554  0.01445707  0.03641270
  0.10580092 -0.02716864  0.01445349  0.81700681  0.07632180
  0.01740384 -0.02817600  0.03644909  0.07636665  0.84210163
################################################################################
Total occupancy of Hubbard site      1 is         8.54778289 e
Local magnetic moment of Hubbard site      1 is   0.12213020 mu_B
DFT+U energy of Hubbard site      1 is            0.08242067 Ha
################################################################################

============ Calculation of NGWF S^-1 using Hotelling algorithm ================ 
     Iteration  |  Spin  |  Frobenius norm and Maximum abs value (of I-S*S_n^-1)
         1           1      0.55047054E+00     0.13783639E+00
         2           1      0.45941207E-01     0.13330836E-01
         3           1      0.61606166E-03     0.19984199E-03
         4           1      0.14929359E-06     0.57361719E-07
         5           1      0.13955682E-13     0.65086825E-14
================================================================================
------------------------------- NGWF line search -------------------------------
RMS gradient                =       0.00131647522146
Trial step length           =               0.122474
Gradient along search dir.  =         -3.80448011028
Functional at step 0        =    -212.51774935509428
Functional at step 1        =    -212.95696520537669
Functional predicted        =    -214.54789452689718
Selected quadratic step     =               1.067239
Conjugate gradients coeff.  =               0.000000
--------------------------- NGWF line search finished --------------------------
                                               
Writing NGWFs to file "Fe_EtOH_3_HighSpin.tightbox_ngwfs".... done

>>> Optimising kernel for current NGWFs:
   Initial electron number for spin 1:      39.43640690
   Initial electron number for spin 2:      34.41294983
     Final electron number for spin 1:      39.00000000
     Final electron number for spin 2:      34.00000000

=================== Penalty functional idempotency correction ==================
 RMS occupancy error at iteration   1:  0.013712 (step -0.4705 Ne1=     39.0000)
                                                               Ne2=     34.0000
 RMS occupancy error at iteration   2:  0.001202 (step -0.5078 Ne1=     39.0000)
                                                               Ne2=     34.0000
 RMS occupancy error at iteration   3:  0.000009 (step -0.5000 Ne1=     39.0000)
                                                               Ne2=     34.0000
            Final RMS occupancy error   :  0.000000 (Ne1=     39.0000)
                                                     Ne2=     34.0000
            Final occupancy bounds spin 1: [  0.000,  1.000]
            Final occupancy bounds spin 2: [ -0.000,  1.000]
================================================================================

................................................................................
<<<<<<<<<<<<<< LNV (Original version) density kernel optimisation >>>>>>>>>>>>>>
~~~~~~~~~~~~~~~~~~~~~~~~~~~~~~~~~~~~~~~~~~~~~~~~~~~~~~~~~~~~~~~~~~~~~~~~~~~~~~~~
   iter  |      energy (Eh)       | rms gradient |  commutator  |   dE (Eh)

################################################################################
DFT+U information on atom      1 of Hubbard species Fe  
################################################################################
Occupancy matrix of Hubbard site      1 and spin      1 is 
  m_l =   -2          -1           0           1           2
  0.78737060 -0.03282167 -0.08215054  0.11154549  0.04333211
 -0.03280893  0.78327885 -0.03780091 -0.03614964 -0.03981867
 -0.08209921 -0.03779245  0.91501781  0.01237479  0.05079477
  0.11150653 -0.03614685  0.01236966  0.80034534  0.08016475
  0.04333327 -0.03984154  0.05084359  0.08021245  0.80109457
################################################################################
Occupancy matrix of Hubbard site      1 and spin      2 is 
  m_l =   -2          -1           0           1           2
  0.74393877 -0.04203829 -0.08375128  0.13073906  0.02354212
 -0.04202388  0.75985942 -0.02865419 -0.03032113 -0.03283059
 -0.08370113 -0.02865015  0.89175249  0.01980254  0.04154178
  0.13069375 -0.03031837  0.01979887  0.75212174  0.09330917
  0.02353936 -0.03285037  0.04158321  0.09336452  0.78463603
################################################################################
Total occupancy of Hubbard site      1 is         8.01941562 e
Local magnetic moment of Hubbard site      1 is   0.15479872 mu_B
DFT+U energy of Hubbard site      1 is            0.10345636 Ha
################################################################################

      ideal mu1:      -0.869740049063
      ideal mu2:      -0.883760454630
             Q0:        -214.415020377727
             G0:      -2.776966986617
   RMS gradient:       0.035174307303

################################################################################
DFT+U information on atom      1 of Hubbard species Fe  
################################################################################
Occupancy matrix of Hubbard site      1 and spin      1 is 
  m_l =   -2          -1           0           1           2
  0.84392944 -0.02812362 -0.05591042  0.08402189  0.03078011
 -0.02811218  0.86581856 -0.02772024 -0.01690808 -0.01747157
 -0.05587582 -0.02771333  0.94001514  0.01427297  0.02858244
  0.08399156 -0.01690603  0.01427123  0.84910522  0.05527399
  0.03078115 -0.01748211  0.02860921  0.05530815  0.86421284
################################################################################
Occupancy matrix of Hubbard site      1 and spin      2 is 
  m_l =   -2          -1           0           1           2
  0.75893062 -0.04912758 -0.06043023  0.12380281 -0.00778522
 -0.04911232  0.81248712 -0.01031603 -0.00904317 -0.00423736
 -0.06039697 -0.01031801  0.89523873  0.02911709  0.01193277
  0.12375932 -0.00904099  0.02911810  0.75582614  0.08296910
 -0.00779210 -0.00424236  0.01194640  0.08301917  0.83324696
################################################################################
Total occupancy of Hubbard site      1 is         8.41881076 e
Local magnetic moment of Hubbard site      1 is   0.30735163 mu_B
DFT+U energy of Hubbard site      1 is            0.08882822 Ha
################################################################################

     Trial step:       0.500000000000
             Q1:        -214.567415091695
 Quadratic coef:       1.236088779340
 Linear coef   :      -1.388483493308
           Qmin:        -214.804937033272
Quadratic minimum step length (  0.280821959659) accepted
    Initial Ne1:      38.99999992
    Initial Ne2:      34.00000000
      Final Ne1:      39.00000000
      Final Ne2:      34.00000000

=================== Penalty functional idempotency correction ==================
 RMS occupancy error at iteration   1:  0.007932 (step -0.4655 Ne1=     39.0000)
                                                               Ne2=     34.0000
 RMS occupancy error at iteration   2:  0.000129 (step -0.4998 Ne1=     39.0000)
                                                               Ne2=     34.0000
            Final RMS occupancy error   :  0.000000 (Ne1=     39.0000)
                                                     Ne2=     34.0000
            Final occupancy bounds spin 1: [  0.000,  1.000]
            Final occupancy bounds spin 2: [  0.000,  1.000]
================================================================================

    1        -2.144150203777E+02     3.5174E-02     2.3186E-02

################################################################################
DFT+U information on atom      1 of Hubbard species Fe  
################################################################################
Occupancy matrix of Hubbard site      1 and spin      1 is 
  m_l =   -2          -1           0           1           2
  0.82188796 -0.03051444 -0.06621799  0.09459004  0.03592260
 -0.03050229  0.83345639 -0.03237246 -0.02469703 -0.02536568
 -0.06617680 -0.03236462  0.93019929  0.01355642  0.03696762
  0.09455636 -0.02469466  0.01355340  0.83000055  0.06473453
  0.03592373 -0.02538067  0.03700263  0.06477386  0.84021150
################################################################################
Occupancy matrix of Hubbard site      1 and spin      2 is 
  m_l =   -2          -1           0           1           2
  0.75636878 -0.04584589 -0.06930849  0.12466950  0.00620383
 -0.04583095  0.79470282 -0.01878440 -0.01762827 -0.01504431
 -0.06926861 -0.01878335  0.89549823  0.02488417  0.02374090
  0.12462587 -0.01762586  0.02488328  0.75795467  0.08562727
  0.00619894 -0.01505487  0.02376542  0.08567865  0.81588953
################################################################################
Total occupancy of Hubbard site      1 is         8.27616972 e
Local magnetic moment of Hubbard site      1 is   0.23534166 mu_B
DFT+U energy of Hubbard site      1 is            0.09475423 Ha
################################################################################

      ideal mu1:      -0.821854332334
      ideal mu2:      -0.833075128092
             Q0:        -214.813399313011
             G0:      -1.068382970238
   RMS gradient:       0.020944823255

################################################################################
DFT+U information on atom      1 of Hubbard species Fe  
################################################################################
Occupancy matrix of Hubbard site      1 and spin      1 is 
  m_l =   -2          -1           0           1           2
  0.82718692 -0.03316944 -0.06072978  0.09550697  0.03576321
 -0.03315570  0.86104924 -0.03105104 -0.01517706 -0.01583177
 -0.06069232 -0.03104309  0.93612333  0.01790980  0.02883633
  0.09547190 -0.01517477  0.01790842  0.82949236  0.06261745
  0.03576495 -0.01584148  0.02886301  0.06265665  0.85069034
################################################################################
Occupancy matrix of Hubbard site      1 and spin      2 is 
  m_l =   -2          -1           0           1           2
  0.69850935 -0.06587380 -0.06338697  0.14405826 -0.02263793
 -0.06585489  0.76717016 -0.00025947 -0.00596669  0.00859866
 -0.06335386 -0.00026682  0.85791474  0.03809875  0.00297168
  0.14400736 -0.00596428  0.03810175  0.68963136  0.09926385
 -0.02264782  0.00859950  0.00297770  0.09932374  0.80184351
################################################################################
Total occupancy of Hubbard site      1 is         8.11961131 e
Local magnetic moment of Hubbard site      1 is   0.48947308 mu_B
DFT+U energy of Hubbard site      1 is            0.09917833 Ha
################################################################################

     Trial step:       0.374714531116
             Q1:        -215.141630219849
 Quadratic coef:       0.072107716907
 Linear coef   :      -0.400338623745
           Qmin:        -215.369064575127
Quadratic minimum step length (  1.040198650850) accepted
========================= Kernel Line Step Protection ==========================
|  Iter |  Trial Step |   RMS Occupancy Error |   Occupancy Bounds | Accepted? |
    0        0.000000                0.000000    [ 1.0000:  0.0000]
    1        1.040199                0.084300    [ 1.3740: -0.3753]        No
    2        0.520099                0.024239    [ 1.1244: -0.1251]       Yes
================================================================================
    Initial Ne1:      38.99999856
    Initial Ne2:      33.99999503
      Final Ne1:      39.00000000
      Final Ne2:      34.00000000

=================== Penalty functional idempotency correction ==================
 RMS occupancy error at iteration   1:  0.024240 (step -0.3901 Ne1=     39.0000)
                                                               Ne2=     34.0000
 RMS occupancy error at iteration   2:  0.002367 (step -0.5029 Ne1=     39.0000)
                                                               Ne2=     34.0000
 RMS occupancy error at iteration   3:  0.000056 (step -0.5004 Ne1=     39.0000)
                                                               Ne2=     34.0000
            Final RMS occupancy error   :  0.000000 (Ne1=     39.0000)
                                                     Ne2=     34.0000
            Final occupancy bounds spin 1: [ -0.000,  1.000]
            Final occupancy bounds spin 2: [ -0.000,  1.000]
================================================================================

    2        -2.148133993130E+02     2.0945E-02     1.4279E-02    -3.9838E-01

################################################################################
DFT+U information on atom      1 of Hubbard species Fe  
################################################################################
Occupancy matrix of Hubbard site      1 and spin      1 is 
  m_l =   -2          -1           0           1           2
  0.82832259 -0.03416128 -0.05898630  0.09633536  0.03596034
 -0.03414694  0.87081100 -0.03045275 -0.01158386 -0.01263141
 -0.05895006 -0.03044485  0.93815193  0.01960286  0.02608986
  0.09629961 -0.01158160  0.01960206  0.82850419  0.06233816
  0.03596235 -0.01263932  0.02611374  0.06237761  0.85347782
################################################################################
Occupancy matrix of Hubbard site      1 and spin      2 is 
  m_l =   -2          -1           0           1           2
  0.67912757 -0.07235727 -0.06070348  0.14749647 -0.03139636
 -0.07233710  0.75643618  0.00597400 -0.00210031  0.01771078
 -0.06067296  0.00596393  0.84325002  0.04192385 -0.00399433
  0.14744409 -0.00209792  0.04192820  0.66643949  0.10222653
 -0.03140764  0.01771602 -0.00399463  0.10228839  0.79641070
################################################################################
Total occupancy of Hubbard site      1 is         8.06093148 e
Local magnetic moment of Hubbard site      1 is   0.57760356 mu_B
DFT+U energy of Hubbard site      1 is            0.10050123 Ha
################################################################################

      ideal mu1:      -0.876980768357
      ideal mu2:      -0.903953494242
             Q0:        -215.254188005863
             G0:      -1.602485849303
   RMS gradient:       0.020866833351
========================= Kernel Line Step Protection ==========================
|  Iter |  Trial Step |   RMS Occupancy Error |   Occupancy Bounds | Accepted? |
    0        0.000000                0.000000    [ 1.0000: -0.0000]
    1        0.624322                0.111996    [ 1.4507: -0.4553]        No
    2        0.312161                0.038476    [ 1.1887: -0.1905]       Yes
================================================================================

################################################################################
DFT+U information on atom      1 of Hubbard species Fe  
################################################################################
Occupancy matrix of Hubbard site      1 and spin      1 is 
  m_l =   -2          -1           0           1           2
  0.83218392 -0.03534854 -0.05367843  0.09859034  0.03596400
 -0.03533303  0.90157223 -0.02662497 -0.00017481 -0.00499869
 -0.05364597 -0.02661813  0.94502366  0.02400549  0.01938482
  0.09855277 -0.00017277  0.02400608  0.82595080  0.06297695
  0.03596674 -0.00500198  0.01940212  0.06301784  0.85963289
################################################################################
Occupancy matrix of Hubbard site      1 and spin      2 is 
  m_l =   -2          -1           0           1           2
  0.60324550 -0.09700760 -0.04856472  0.14062352 -0.06480192
 -0.09698412  0.67879460  0.03163393  0.00345316  0.05536744
 -0.04854458  0.03161246  0.76883487  0.04960165 -0.02476140
[...]
*                       x            y            z      *
*                                                        *
*    Fe      1     -0.00000000  -0.00000000   0.00000000 *
*    O       2     -0.00000165  -0.00000231   0.00000143 *
*    O       3     -0.00000036   0.00000278  -0.00000131 *
*    O       4     -0.00000221  -0.00000099   0.00000227 *
*    H       5      0.00000000   0.00000000   0.00000000 *
*    C       6      0.01245979   0.00351169  -0.01028094 *
*    H       7      0.00000000   0.00000000   0.00000000 *
*    C       8      0.00604818   0.01274733  -0.00783088 *
*    H       9      0.00000000   0.00000000   0.00000000 *
*    C      10     -0.00005306  -0.01404319   0.00756251 *
*    H      11      0.00000000   0.00000000   0.00000000 *
*    H      12      0.00000000   0.00000000   0.00000000 *
*    C      13     -0.00376001   0.00419740  -0.00018291 *
*    H      14      0.00000000   0.00000000   0.00000000 *
*    H      15      0.00000000   0.00000000   0.00000000 *
*    H      16      0.00000000   0.00000000   0.00000000 *
*    H      17      0.00000000   0.00000000   0.00000000 *
*    C      18     -0.00522860  -0.00195251   0.00056134 *
*    H      19      0.00000000   0.00000000   0.00000000 *
*    H      20      0.00000000   0.00000000   0.00000000 *
*    H      21      0.00000000   0.00000000   0.00000000 *
*    H      22      0.00000000   0.00000000   0.00000000 *
*    H      23      0.00000000   0.00000000   0.00000000 *
*    H      24      0.00000000   0.00000000   0.00000000 *
*    C      25      0.00327762  -0.00446254  -0.00099991 *
*    H      26      0.00000000   0.00000000   0.00000000 *
*    H      27      0.00000000   0.00000000   0.00000000 *
*    H      28      0.00000000   0.00000000   0.00000000 *
*                                                        *
**********************************************************
TOTAL:              0.01273971  -0.00000232  -0.01116840
 
********************* Unconstrained **********************
********************** DFT+U forces **********************
*                                                        *
* Element  Atom         Cartesian components (Eh/a)      *
* ------------------------------------------------------ *
*                       x            y            z      *
*                                                        *
*    Fe      1      0.00109718  -0.00000594  -0.00062539 *
*    O       2      0.00000000   0.00000000   0.00000000 *
*    O       3      0.00000000   0.00000000   0.00000000 *
*    O       4      0.00000000   0.00000000   0.00000000 *
*    H       5      0.00000000   0.00000000   0.00000000 *
*    C       6      0.00000000   0.00000000   0.00000000 *
*    H       7      0.00000000   0.00000000   0.00000000 *
*    C       8      0.00000000   0.00000000   0.00000000 *
*    H       9      0.00000000   0.00000000   0.00000000 *
*    C      10      0.00000000   0.00000000   0.00000000 *
*    H      11      0.00000000   0.00000000   0.00000000 *
*    H      12      0.00000000   0.00000000   0.00000000 *
*    C      13      0.00000000   0.00000000   0.00000000 *
*    H      14      0.00000000   0.00000000   0.00000000 *
*    H      15      0.00000000   0.00000000   0.00000000 *
*    H      16      0.00000000   0.00000000   0.00000000 *
*    H      17      0.00000000   0.00000000   0.00000000 *
*    C      18      0.00000000   0.00000000   0.00000000 *
*    H      19      0.00000000   0.00000000   0.00000000 *
*    H      20      0.00000000   0.00000000   0.00000000 *
*    H      21      0.00000000   0.00000000   0.00000000 *
*    H      22      0.00000000   0.00000000   0.00000000 *
*    H      23      0.00000000   0.00000000   0.00000000 *
*    H      24      0.00000000   0.00000000   0.00000000 *
*    C      25      0.00000000   0.00000000   0.00000000 *
*    H      26      0.00000000   0.00000000   0.00000000 *
*    H      27      0.00000000   0.00000000   0.00000000 *
*    H      28      0.00000000   0.00000000   0.00000000 *
*                                                        *
**********************************************************
TOTAL:              0.00109718  -0.00000594  -0.00062539
 
********************* Unconstrained **********************
****** Correction to ensure the total force is zero ******
*                                                        *
* Element  Atom         Cartesian components (Eh/a)      *
* ------------------------------------------------------ *
*                       x            y            z      *
*                                                        *
*    Fe      1      0.00002685   0.00000873  -0.00000549 *
*    O       2      0.00002685   0.00000873  -0.00000549 *
*    O       3      0.00002685   0.00000873  -0.00000549 *
*    O       4      0.00002685   0.00000873  -0.00000549 *
*    H       5      0.00002685   0.00000873  -0.00000549 *
*    C       6      0.00002685   0.00000873  -0.00000549 *
*    H       7      0.00002685   0.00000873  -0.00000549 *
*    C       8      0.00002685   0.00000873  -0.00000549 *
*    H       9      0.00002685   0.00000873  -0.00000549 *
*    C      10      0.00002685   0.00000873  -0.00000549 *
*    H      11      0.00002685   0.00000873  -0.00000549 *
*    H      12      0.00002685   0.00000873  -0.00000549 *
*    C      13      0.00002685   0.00000873  -0.00000549 *
*    H      14      0.00002685   0.00000873  -0.00000549 *
*    H      15      0.00002685   0.00000873  -0.00000549 *
*    H      16      0.00002685   0.00000873  -0.00000549 *
*    H      17      0.00002685   0.00000873  -0.00000549 *
*    C      18      0.00002685   0.00000873  -0.00000549 *
*    H      19      0.00002685   0.00000873  -0.00000549 *
*    H      20      0.00002685   0.00000873  -0.00000549 *
*    H      21      0.00002685   0.00000873  -0.00000549 *
*    H      22      0.00002685   0.00000873  -0.00000549 *
*    H      23      0.00002685   0.00000873  -0.00000549 *
*    H      24      0.00002685   0.00000873  -0.00000549 *
*    C      25      0.00002685   0.00000873  -0.00000549 *
*    H      26      0.00002685   0.00000873  -0.00000549 *
*    H      27      0.00002685   0.00000873  -0.00000549 *
*    H      28      0.00002685   0.00000873  -0.00000549 *
*                                                        *
**********************************************************
TOTAL:              0.00075177   0.00024454  -0.00015363

********************* Unconstrained **********************
************************* Forces *************************
*                                                        *
* Element  Atom         Cartesian components (Eh/a)      *
* ------------------------------------------------------ *
*                       x            y            z      *
*                                                        *
*    Fe      1      0.00100378   0.00000966  -0.00040966 *
*    O       2      0.00390511   0.00866517  -0.00595159 *
*    O       3     -0.00124830  -0.01057573   0.00549724 *
*    O       4      0.00847299   0.00178150  -0.00657045 *
*    H       5     -0.00893640   0.00095342  -0.00123496 *
*    C       6     -0.00247669  -0.00594858   0.00171663 *
*    H       7     -0.00690038   0.00406750   0.00337626 *
*    C       8     -0.00603113  -0.00019609   0.00420682 *
*    H       9      0.00393846  -0.00524171   0.00610928 *
*    C      10     -0.00375093   0.00326167  -0.00319973 *
*    H      11      0.00223468  -0.00217122  -0.00522310 *
*    H      12      0.00484898   0.00106485   0.00238297 *
*    C      13      0.00183042  -0.00259101   0.00001371 *
*    H      14     -0.00398896  -0.00046036  -0.00276561 *
*    H      15      0.00173131   0.00405556  -0.00266035 *
*    H      16     -0.00146841   0.00193287   0.00412102 *
*    H      17      0.00304220  -0.00297807  -0.00297256 *
*    C      18      0.00208988   0.00164210  -0.00079932 *
*    H      19      0.00326775   0.00058496   0.00458222 *
*    H      20     -0.00256251  -0.00070400  -0.00373004 *
*    H      21     -0.00271244   0.00229734   0.00331190 *
*    H      22     -0.00011728  -0.00450499   0.00266312 *
*    H      23      0.00280597   0.00514687   0.00197371 *
*    H      24     -0.00235887   0.00208218  -0.00439227 *
*    C      25     -0.00168808   0.00206975   0.00075403 *
*    H      26      0.00302503  -0.00160930   0.00377652 *
*    H      27      0.00417184   0.00123535  -0.00298011 *
*    H      28     -0.00212801  -0.00386968  -0.00159566 *
*                                                        *
**********************************************************
* TOTAL:            0.00000000   0.00000000  -0.00000000 *
**********************************************************
 
 
***********************************************************
********** Summary of Forces (values in Eh/a) *************
*                                                         *
* ---------------------- Minimum ------------------------ *
* Atom:         1, |F|min =    0.00108420                 *
* Components:     Fx|min       Fy|min       Fz|min        *
*               0.00100378   0.00000966  -0.00040966      *
*                                                         *
* ---------------------- Maximum ------------------------ *
* Atom:         3, |F|max =    0.01198432                 *
* Components:     Fx|max       Fy|max       Fz|max        *
*              -0.00124830  -0.01057573   0.00549724      *
*                                                         *
* ---------------- Root Mean Square Force --------------- *
*                  |F|rms =    0.00654818                 *
* Components:     Fx|rms       Fy|rms       Fz|rms        *
*               0.00390834   0.00380896   0.00361875      *
***********************************************************
 

------------------------------ TIMING INFORMATION ------------------------------
AVERAGE TIME:    6121.636s on      6 proc(s)                                    
TOTAL TIME:      6121.636s on      6 proc(s)                                    
==================== AVERAGE TIMINGS FROM ALL PROCS (CUMULATIVE) =====================
|| TAG                                         #calls     cpu time   %total  Gflops ||
|| hubbard_species_proj                       :     1        0.00s   0.000%  ------ ||
|| hubbard_ngwf_on_grid                       :     1        0.00s   0.000%  ------ ||
|| onetep.F90 main loop imbalance             :     1        0.00s   0.000%  ------ ||
|| hubbard_projector_character                :     1        0.00s   0.000%  ------ ||
|| linalg_invert_sym_matrix                   :     2        0.00s   0.000%  ------ || (1 procs only)
|| hash_table_free                            :    77        0.00s   0.000%  ------ ||
|| hubbard_ngwf_select                        :     1        0.00s   0.000%  ------ ||
|| sparse_spam3toblacs_real_fast_imbal        :     6        0.00s   0.000%  ------ ||
|| hubbard_tensorial_correction               :     2        0.00s   0.000%  ------ ||
|| ewald_calculate_forces_realspace           :     1        0.00s   0.000%  ------ ||
|| sparse_spam3toblacs_real_fast_B2           :    36        0.00s   0.000%  ------ ||
|| sparse_blacstospam3_real_fast_imbal        :    24        0.00s   0.000%  ------ ||
|| sparse_spam3toblacs_real_fast_B1           :    36        0.00s   0.000%  ------ ||
|| density_fftbox_interp_mult_imbal           : 10348        0.00s   0.000%  ------ ||
|| onetep.F90 final imbalance                 :     1        0.00s   0.000%  ------ ||
|| sparse_spam3toblacs_real_fast              :     6        0.00s   0.000%  ------ ||
|| sw_bessel_init_cpu                         :     1        0.01s   0.000%  ------ || (1 procs only)
|| linalg_dsyev_lt                            :   394        0.02s   0.000%  ------ || (1 procs only)
|| ewald_calculate_forces_recipspace          :     1        0.00s   0.000%  ------ ||
|| ewald_calculate_forces                     :     1        0.00s   0.000%  ------ ||
|| ewald_calculate_energy                     :     1        0.01s   0.000%  ------ ||
|| sparse_set_to_garbage                      :  1147        0.01s   0.000%  ------ ||
|| sparse_blacstospam3_real_fast              :    24        0.01s   0.000%  ------ ||
|| sparse_init                                :     1        0.01s   0.000%  ------ ||
|| hubbard_projection_mtx                     :    79        0.02s   0.000%  ------ ||
|| paw_dij_hartree                            :   435        0.02s   0.000%  ------ ||
|| linalg_dgemv                               :   127        0.03s   0.000%  ------ ||
|| augmentation_density_forces                :     1        0.05s   0.001%  ------ ||
|| sw_init                                    :   811        0.07s   0.001%  ------ ||
|| palser_mano_kernel_optimise_spam3_embed    :     2        0.07s   0.001%  ------ ||
|| sparse_embed_array_hotelling_invert        :    77        0.08s   0.001%  ------ ||
|| basis_extract_function_from_box            :  1742        0.09s   0.001%  ------ ||
|| hubbard_ham_matrix                         :   197        0.09s   0.001%  ------ ||
|| dense_eigensolve                           :     2        0.09s   0.001%  ------ ||
|| paw_tcore_density                          :     1        0.11s   0.002%  ------ ||
|| restart_kernel_write                       :    40        0.11s   0.002%  ------ ||
|| hubbard_projector_ham                      :   196        0.12s   0.002%  ------ ||
|| hubbard_calculate_forces                   :     1        0.16s   0.003%  ------ ||
|| pseudo_make_structure_factor               :     1        0.18s   0.003%  ------ ||
|| ngwfs_initialise_from_radial               :     2        0.26s   0.004%  ------ ||
|| paw_tcore_hartree_on_grid                  :     1        0.32s   0.005%  ------ ||
|| nonsc_forces_ngwfs_calc                    :     1        0.33s   0.005%  ------ ||
|| paw_sphere_density_on_grid                 :     1        0.35s   0.006%  ------ ||
|| integrals_grad_spam3                       :     2        0.49s   0.008%  ------ ||
|| paw_tcore_hartree_calc_forces              :     1        0.57s   0.009%  ------ ||
|| hubbard_energy_total                       :   394        0.60s   0.010%  ------ ||
|| lnv_gradient_norm                          :   195        0.75s   0.012%  ------ ||
|| kernel_purify                              :   620        0.85s   0.014%  ------ ||
|| kernel_fix                                 :   195        1.14s   0.019%  ------ ||
|| sparse_trace                               : 16655        1.55s   0.025%  ------ ||
|| hubbard_projector_update                   :     1        1.69s   0.028%  ------ ||
|| paw_dataset_init                           :     4        1.74s   0.028%  ------ ||
|| function_ops_brappd_ketppd_spam3           :   156        1.91s   0.031%  ------ ||
|| projectors_func_grad_ovlp_box_spam3        :     3        2.42s   0.040%  ------ ||
|| aug_nl_calculate_forces                    :     1        2.55s   0.042%  ------ ||
|| paw_species_calc_proj_prec_mat             :     1        2.86s   0.047%  ------ ||
|| paw_nlcc_calculate_forces                  :     1        3.46s   0.057%  ------ ||
|| sparse_product                             : 27714        4.30s   0.070%  ------ ||
|| ngwf_gradient_coeffs                       :    39        4.51s   0.074%  ------ ||
|| restart_ngwfs_tightbox_output              :    38        4.56s   0.074%  ------ ||
|| eigenstates_calculate                      :     1        4.88s   0.080%  ------ ||
|| energy_and_force_init_cell                 :     1        7.37s   0.120%  ------ ||
|| basis_copy_function_to_box                 : 15209       11.63s   0.190%  ------ ||
|| fourier_apply_box_pair                     :  2210       12.77s   0.209% 113.658 ||
|| integrals_kinetic_spam3                    :    77       12.81s   0.209%  ------ ||
|| basis_dot_function_with_box                : 473.8k      12.90s   0.211%  ------ ||
|| augmentation_screen_dij_spam3              :   412       17.47s   0.285%  ------ ||
|| forces_calculate                           :     1       18.44s   0.301%  ------ ||
|| density_init_guess_real                    :     2       19.90s   0.325%  ------ ||
|| cell_grid_extract_box_real                 : 12797       21.73s   0.355%  ------ ||
|| basis_add_function_to_box                  : 837.7k      24.01s   0.392%  ------ ||
|| density_batch_row_sums                     :   796       24.11s   0.394%  ------ ||
|| aug_nonlocal_mat_spam3_embed_array         :   395       42.73s   0.698%  ------ ||
|| paw_dij_xc                                 :   435       46.38s   0.758%  ------ ||
|| cell_grid_deposit_box_real                 : 16281       49.08s   0.802%  ------ ||
|| aug_density_on_grid_spam3                  :   398       66.57s   1.087%  ------ ||
|| integrals_locpot_mat_els_batch             :   426       72.49s   1.184%  ------ ||
|| density_fftbox_deposit_to_cell             : 10348       79.86s   1.304%  ------ ||
|| fourier_filter_cell                        :   504      101.92s   1.665%  25.079 ||
|| projectors_init_fftbox_recip               :   395      105.51s   1.724%  ------ ||
|| projectors_func_ovlp_box_spam3             :   157      106.58s   1.741%  ------ ||
|| properties_calculate                       :     1      117.69s   1.923%  ------ ||
|| hamiltonian_energy_components              :     8      121.92s   1.992%  ------ ||
|| fourier_filter                             :  3427      132.62s   2.166%  ------ ||
|| hartree_on_grid_single                     :   397      147.53s   2.410%  ------ ||
|| fourier_interpolate_cell                   :   796      163.81s   2.676%  24.645 ||
|| fourier_interpolate                        :  3427      211.53s   3.455%  ------ ||
|| projectors_grad_precond_batch              :    78      545.44s   8.910%  ------ ||
|| fourier_interpolate_product                :  8888      551.47s   9.009%  ------ ||
|| potential_apply_to_ngwf_batch              :   426      559.03s   9.132%  ------ ||
|| fourier_apply_box                          : 61621      586.31s   9.578% 193.233 ||
|| fourier_apply_cell_forward                 :  3574      589.50s   9.630%  27.677 ||
|| density_fftbox_interpolate_multiply        : 10348      594.64s   9.714%  ------ ||
|| integrals_locpot_dbl_grid                  :   426      631.63s  10.318%  ------ ||
|| fourier_apply_cell_backward                :  3574      634.20s  10.360%  25.726 ||
|| projectors_gradient_batch                  :   156      982.97s  16.057%  ------ ||
|| density_batch_interp_deposit               :   796     1004.82s  16.414%  ------ ||
|| density_on_dbl_grid                        :   796     1044.52s  17.063%  ------ ||
|| xc_energy_potential                        :   397     1336.84s  21.838%  ------ ||
|| ngwf_gradient_build_batch                  :    78     1775.97s  29.011%  ------ ||
|| ngwf_gradient_batch                        :    78     1891.84s  30.904%  ------ ||
|| ngwf_gradient_lnv                          :    39     1919.70s  31.359%  ------ ||
|| hamiltonian_lhxc_calculate                 :   387     2995.12s  48.927%  ------ ||
|| lnv_denskernel_optimise_cg                 :    39     3399.79s  55.537%  ------ ||
|| ngwf_cg_optimise                           :     1     5940.08s  97.034%  ------ ||
|| energy_and_forces                          :     1     6113.85s  99.873%  ------ ||
|| total_time                                 :     1     6121.64s 100.000%  ------ ||
======================================================================================
Overhead of generating timer report: 
- 0 ms averaging over threads,
- 0 ms ensuring consistency across MPI ranks,
- 0 ms printing in order.

Job completed: 28-06-2025 13:52 (+0100)

onetep_launcher: ONETEP seems to have finished correctly (zero exit code).
                 Brought to you by PID 101377 on nid006762.
