==================================================================================
It's Sat 28 Jun 2025 12:11:31 PM BST.
*** Starting onetep_launcher (node nid002980, PIDs 138733 138734 138735 138736 138737 138738)...
    - ONETEP arguments: Fe_H2O_6_LowSpin_NGWFSP.dat
    - Current directory: /mnt/lustre/a2fs-work3/work/e89/e89/phsmea/onetep_ali/Fe_H2O_6/LS/sp
    - Launcher executable directory: /mnt/lustre/a2fs-work3/work/e89/e89/phsmea/onetep_ali
    - (-e) ONETEP executable specified through command-line: /work/e89/e89/phsmea/onetep.archer2_2024_cray_2
      ... trying /work/e89/e89/phsmea/onetep.archer2_2024_cray_2
          -> looks OK
*** Setting up environment...
    - (-s) Process stack size: unlimited
    - (-t) OMP_NUM_THREADS: 8
    - (-o) OMP_STACKSIZE: 64M
    - (-c) Maximum core file size: 2048000
    - (-d) decfort_dump_flag: n
    - (-m) I_MPI_OFA_TRANSLATION_CACHE: 0
    - (-m) I_MPI_DAPL_TRANSLATION_CACHE: 0
    - (-m) I_MPI_DAPL_UD_TRANSLATION_CACHE: 0
*** Starting ONETEP...
    - /work/e89/e89/phsmea/onetep.archer2_2024_cray_2 Fe_H2O_6_LowSpin_NGWFSP.dat
=================================================================================
_________________________________________________________________________________
 +---------------------------------------------------------------+
 |                                                               |
 |        ####### #     # ####### ####### ####### ######         |
 |        #     # ##    # #          #    #       #     #        |
 |        #     # # #   # #          #    #       #     #        |
 |        #     # #  #  # #####      #    #####   ######         |
 |        #     # #   # # #          #    #       #              |
 |        #     # #    ## #          #    #       #              |
 |        ####### #     # #######    #    ####### #              |
 |                                                               |
 |        Linear-Scaling Ab Initio Total Energy Program          |
 |                                                               |
 |          Release for academic collaborators of ODG            |
 |                                             Version 7.3.0     |
 | Remote: git@github.com:Miesaz/onetep_mea.git                  |
 | Local branch: master                                          |
 | Commit ID: 4af45e89288c8df5499704252eec3e032ee3d0c8           |
 | Date: Tue Aug 6 11:28:44 2024 +0100                           |
 | Locally modified files:                                       |
 |   src/hubbard_build_mod.F90                                   |
 |   src/services_mod.F90                                        |
 |                                                               |
 +---------------------------------------------------------------+
 |                                                               |
 |  Authors:                                                     |
 |  Jacek Dziedzic, Peter D. Haynes, Nicholas D. M. Hine,        |
 |  Arash A. Mostofi, Mike C. Payne and Chris-Kriton Skylaris    |
 |                                                               |
 |  Contributors:                                                |
 |  J. Aarons, L. Andrinopoulos, P. W. Avraam, R. A. Bell,       |
 |  A. Bhandari, G. A. Bramley, R. J. Charlton, S. J. Clark,     |
 |  R. J. Clements, G. C. Constantinescu, F. Corsetti,           |
 |  N. Corsini, O. Dieguez, S. M. M. Dubois, K. K. B. Duff,      |
 |  J. M. Escartin, M. Escobar Azor, A. Greco,                   |
 |  H. Helal, Q. O. Hill, L. P. Lee, J.-H. Li,                   |
 |  T. Li, E. B. Linscott, G. Moynihan, D. D. O`Regan,           |
 |  O. K. Okan, E. Parkinson, M. J. S. Phipps,                   |
 |  C. J. Pickard, J. C. A. Prentice, M. I. J. Probert,          |
 |  L. E. Ratcliff, M. Robinson, A. Ruiz Serrano,                |
 |  M. dos Santos Dias, J. S. Spencer, E. W. Tait,               |
 |  G. Teobaldi, D. Turban, V. Vitale, K. A. Wilkinson,          |
 |  C. Weber, J. C. Womack, Chengcheng Xiao, N. Yeung,           |
 |  and T. J. Zuehlsdorff.                                       |
 |                                                               |
 |                                   Copyright (c) 2004-2025     |
 |                                                               |
 |  Please cite:                                                 |
 |  "The ONETEP linear-scaling density functional theory program"|
 |   J. Chem. Phys. 152(17) 174111 (2020)                        |
 |                                                               |
 |          in all publications arising from your use of ONETEP. |
 |                                                               |
 +---------------------------------------------------------------+
 |                                                               |
 |   ONETEP is based on developments described in the following  |
 |   publications:                                               |
 |                                                               |
 |  "Nonorthogonal generalized Wannier function pseudopotential  |
 |   plane-wave method".                                         |
 |   C.-K. Skylaris, A. A. Mostofi, P. D. Haynes, O. Dieguez,    |
 |   M. C. Payne.                                                |
 |   Phys. Rev. B 66 035119 (2002).                              |
 |                                                               |
 |  "Preconditioned iterative minimization for linear-scaling    |
 |   electronic structure calculations".                         |
 |   A. A. Mostofi, P. D. Haynes, C.-K. Skylaris, M. C. Payne.   |
 |   J. Chem. Phys. 119(17), pp.8842-8848 (2003).                |
 |                                                               |
 |  "Total-energy calculations on a real space grid with         |
 |   localized functions and a plane-wave basis".                |
 |   A. A. Mostofi, C.-K. Skylaris, P. D. Haynes, M. C. Payne.   |
 |   Comput. Phys. Commun. 147, pp.788-802 (2002).               |
 |                                                               |
 |  "Accurate kinetic energy evaluation in electronic structure  |
 |   calculations with localized functions on real space grids"  |
 |   C.-K. Skylaris, A. A. Mostofi, P. D. Haynes, C. J. Pickard, |
 |   M. C. Payne.                                                |
 |   Comput. Phys. Commun. 140, pp.315-322 (2001).               |
 |                                                               |
 |  "Accurate ionic forces and geometry optimization in linear-  |
 |   scaling density-functional theory with local orbitals"      |
 |   N. D. M. Hine, M. Robinson, P. D. Haynes, C.-K. Skylaris,   |
 |   M. C. Payne, and A. A. Mostofi.                             |
 |   Phys. Rev. B 83 195102 (2011).                              |
 |                                                               |
 +---------------------------------------------------------------+

Job started: 28-06-2025 12:11 (+0100)
 
Reading parameters from file "Fe_H2O_6_LowSpin_NGWFSP.dat" ...... done

If your calculation crashes here, before "Checking processes and threads..."
is displayed, then your stack size is insufficient.
If so, use "ulimit -s unlimited" at runtime.
You can disable this check with "check_stack_size F".

Checking processes and threads...
   Determining the default number of threads...
      No default threads set at compilation time: defaulting to 1.
      OpenMP library call suggests 8 threads.
      Hybrid MPI-OpenMP compilation detected.
      Number of MPI processes > 1.
      OMP_NUM_THREADS environment variable present and
      its value matches the one obtained from the OpenMP library call.
      Using this value as default.
      Default threads: 8
      Default applies to threads_max and threads_num_fftboxes.
      Settings in the input file override this default.
   ... done

   Running with 6 MPI processes.
   There are 6 MPI processes running on the same node as the root process.
   Each MPI process is using: 
               1 threads for simulation cell FFTs.
               1 threads for threaded FFT box operations.
               8 threads for loops over batched FFT box operations.
               8 threads in other parallel regions.
   MPI Interface: S1 (use mpi_f08) (-DMPI -DUSE_MPI_F08).
   MPI_ASYNC_PROTECTS_NONBLOCKING: Yes. MPI_SUBARRAYS_SUPPORTED: Yes.
   FFTW Interface: OMP-capable and MODERN. (-DUSE_MODERN_FFTW specified).
   GPU Interface: None.
   GPU FFT Backend: None.
... done

Basic input checks...... done

Reading geometry and species blocks from file "Fe_H2O_6_LowSpin_NGWFSP.dat" ...
  <species_atomic_set> block not found: NGWF initialisation set to SOLVE
    
  Number of PPD points along a3 set to 1.  This is 
  the default value, it may have been provided also in the input file.
... done


--------------------------------------------------------------------------------
---------------------------------- INPUT FILE ----------------------------------
--------------------------------------------------------------------------------

charge : 3                                                                      
cutoff_energy : 800 eV                                                          
do_properties : T                                                               
edft : F                                                                        
fine_grid_scale : 4                                                             
forces_output_detail : VERBOSE                                                  
output_detail : VERBOSE                                                         
paw : T                                                                         
pseudo_path : ../../..                                                          
spin : 1                                                                        
task : SINGLEPOINT                                                              
write_denskern : T                                                              
write_forces : T                                                                
write_tightbox_ngwfs : T                                                        
xc_functional : pbe                                                             
ngwfs_spin_polarized : T                                                        
%BLOCK HUBBARD                                                                  
Fe 2 4.0 0 -10 0 0                                                              
%ENDBLOCK HUBBARD                                                               
%BLOCK LATTICE_CART                                                             
ang                                                                             
24.26273295       0.00000000       0.00000000                                   
0.00000000      24.37834389       0.00000000                                    
0.00000000       0.00000000      24.49207180                                    
%ENDBLOCK LATTICE_CART                                                          
%BLOCK POSITIONS_ABS                                                            
ang                                                                             
Fe    12.131409    12.189430    12.246010                                       
O    10.852025    11.974546    10.809567                                        
O    13.409684    12.402138    13.683725                                        
O    12.703018    13.906702    11.545482                                        
O    11.558212    10.474108    12.948319                                        
O    10.764765    13.123292    13.250511                                        
O    13.495125    11.254929    11.237207                                        
H    10.736446    14.086048    13.386765                                        
H    12.308696    14.358703    10.779612                                        
H    10.000000    12.439837    10.746818                                        
H    10.752702    10.000000    12.679156                                        
H    13.274587    12.926097    14.492072                                        
H    14.170631    11.672698    10.675578                                        
H    11.953005    10.019251    13.712311                                        
H    10.093469    12.702583    13.815024                                        
H    10.990876    11.453445    10.000000                                        
H    13.527032    10.291203    11.108929                                        
H    13.511670    14.378344    11.809422                                        
H    14.262733    11.938399    13.743870                                        
%ENDBLOCK POSITIONS_ABS                                                         
%BLOCK SPECIES                                                                  
Fe Fe 26 -1 10.0                                                                
H H 1 -1 10.0                                                                   
O O 8 -1 10.0                                                                   
%ENDBLOCK SPECIES                                                               
%BLOCK SPECIES_POT                                                              
Fe Fe.PBE-paw.abinit                                                            
H H.PBE-paw.abinit                                                              
O O.PBE-paw.abinit                                                              
%ENDBLOCK SPECIES_POT                                                           

--------------------------------------------------------------------------------
-------------------------------- END INPUT FILE --------------------------------
--------------------------------------------------------------------------------


 
 ESDF WARNING(1): "charge" (esdf_physical) has no units. Assume "e".
<<<<<<<<<<<<<<<<<<<<<<<<<<<<<<<<< Full system >>>>>>>>>>>>>>>>>>>>>>>>>>>>>>>>>>
<<<<<<<<<<<<<<<<<<<<<<<<<<< PAW Dataset information >>>>>>>>>>>>>>>>>>>>>>>>>>>
File: Fe.PBE-paw.abinit; rc = 2.12 bohr; shape type =  2; rshape = 1.81 bohr;
  Atomic number: 26;  ionic charge: 16.000000
    Partial Wave 1: l = 0
    Partial Wave 2: l = 0
    Partial Wave 3: l = 1
    Partial Wave 4: l = 1
    Partial Wave 5: l = 2
    Partial Wave 6: l = 2
  Core charge supplied for Nonlinear Core Corrections
File: O.PBE-paw.abinit; rc = 1.41 bohr; shape type =  2; rshape = 1.20 bohr;
  Atomic number:  8;  ionic charge:  6.000000
    Partial Wave 1: l = 0
    Partial Wave 2: l = 0
    Partial Wave 3: l = 1
    Partial Wave 4: l = 1
  Core charge supplied for Nonlinear Core Corrections
File: H.PBE-paw.abinit; rc = 0.90 bohr; shape type =  2; rshape = 0.80 bohr;
  Atomic number:  1;  ionic charge:  1.000000
    Partial Wave 1: l = 0
    Partial Wave 2: l = 0
    Partial Wave 3: l = 1
<<<<<<<<<<<<<<<<<<<<<<<<<<<<<<<<<<<<<<< >>>>>>>>>>>>>>>>>>>>>>>>>>>>>>>>>>>>>>>

-------------------------- Atom counting information ---------------------------
Symbol    Natoms    Nngwfs    Nprojs
  Fe         1        13        18
  O          6        24        48
  H         12        12        60
.......   ......    ......    ......
Totals:     19        49       126
--------------------------------------------------------------------------------

=============================== PSINC grid sizes ===============================
                      Simulation cell:   91 x  91 x  91
                              FFT-box:   91 x  91 x  91
                                  PPD:    7 x   7 x   1
Grid space d1=  0.503845280792a0 (KE cutoff=  29.92331Eh = 814.25466eV)
Grid space d2=  0.506246083152a0 (KE cutoff=  29.64017Eh = 806.54999eV)
Grid space d3=  0.508607782094a0 (KE cutoff=  29.36554Eh = 799.07702eV)
================================================================================

********************* Fourier parallelisation information **********************
       Coarse grid (whole simulation cell) dimensions:     91    91    91
          Real-space ('12') slabs/proc (min max mean):     15    16    15
         Recip-space ('23') slabs/proc (min max mean):      7     8     7
********************************************************************************

********************* Fourier parallelisation information **********************
       Double grid (whole simulation cell) dimensions:    182   182   182
          Real-space ('12') slabs/proc (min max mean):     30    31    30
         Recip-space ('23') slabs/proc (min max mean):     15    16    15
********************************************************************************

********************* Fourier parallelisation information **********************
         Fine grid (whole simulation cell) dimensions:    364   364   364
          Real-space ('12') slabs/proc (min max mean):     60    61    60
         Recip-space ('23') slabs/proc (min max mean):     30    31    30
********************************************************************************

Atom SCF Calculation for Fe : Z (AE atom) =  26 : Z (PS atom) =  16
Config String: 3s2.0 3p6.0 3d6.0 4s2.0 4p0.0
Orbitals (num,occ):  5     2.00 6.00 6.00 2.00 0.00
Orbitals   (num,l):  5        0    1    2    0    1
Real-space Grid (nr,dr,rmax): 1503    0.0066577896   10.0000000000
Spherical Bessel Basis (nsws,lmax,cutoff):   37    4  176.3967570603
Confining potential (l,width,scale):  0    3.0000000000  100.0000000000
Confining potential (l,width,scale):  1    3.0000000000  100.0000000000
Confining potential (l,width,scale):  2    3.0000000000  100.0000000000
  1       -111.4005172118  -52.5575611559   72.2164000725   -4.0901868950
  2       -116.6635475262  -20.5601904919   91.7007084249   -2.2962490369
  3       -121.6156136875  -23.2753453277   92.4544705195   -2.7706732816
  4       -123.0066153699  -21.4164712440   94.7136519632   -2.9394413820
  5       -123.8168122141  -22.6370400734   94.1384349420   -3.0798102909
  6       -123.9055073486  -21.7222843370   94.9342614757   -3.0846520419
  7       -124.0956886241  -22.4138747628   94.4617720360   -3.1224050559
  8       -124.0492758687  -21.8887017510   94.8692044073   -3.1096545890
  9       -124.1222324005  -22.2877514631   94.5777385101   -3.1254730624
 10       -124.0894611846  -22.0431086758   94.7620026738   -3.1177312036
 11       -124.1066906466  -22.1417456915   94.6895757605   -3.1215019185
 12       -124.1027421480  -22.1090398813   94.7144439268   -3.1205307857
 13       -124.1039552528  -22.1131641559   94.7116547863   -3.1207645739
 14       -124.1041718268  -22.1127261003   94.7121170471   -3.1207931979
 15       -124.1043563153  -22.1126782042   94.7122440208   -3.1208211382
 16       -124.1044853288  -22.1126702816   94.7123114748   -3.1208409484
 17       -124.1045734258  -22.1126674103   94.7123551926   -3.1208545095
 18       -124.1046334193  -22.1126657134   94.7123845864   -3.1208637603
 19       -124.1046742816  -22.1126645462   94.7124045128   -3.1208700757
 20       -124.1047021281  -22.1126636961   94.7124180731   -3.1208743926
 21       -124.1047211147  -22.1126630559   94.7124273290   -3.1208773473
 22       -124.1047340666  -22.1126625637   94.7124336643   -3.1208793718
 23       -124.1047429056  -22.1126621807   94.7124380116   -3.1208807606
 24       -124.1047489402  -22.1126618812   94.7124410017   -3.1208817142
 25       -124.1047530616  -22.1126616468   94.7124430628   -3.1208823696
 26       -124.1047558771  -22.1126614637   94.7124444863   -3.1208828204
 27       -124.1047578011  -22.1126613212   94.7124454714   -3.1208831306
 28       -124.1047591161  -22.1126612109   94.7124461541   -3.1208833444
 29       -124.1047600152  -22.1126611259   94.7124466281   -3.1208834917
 30       -124.1047606300  -22.1126610607   94.7124469575   -3.1208835933
 31       -124.1047610504  -22.1126610110   94.7124471869   -3.1208836634
 32       -124.1047613380  -22.1126609733   94.7124473467   -3.1208837118
 33       -124.1047615347  -22.1126609447   94.7124474583   -3.1208837453
 34       -124.1047616693  -22.1126609232   94.7124475361   -3.1208837684
 35       -124.1047617614  -22.1126609071   94.7124475906   -3.1208837843
Atom SCF converged after  35 iterations to a total energy of   -124.10476176

Atom SCF Calculation for H  : Z (AE atom) =   1 : Z (PS atom) =   1
Config String: 1s1.0
Orbitals (num,occ):  1     1.00
Orbitals   (num,l):  1        0
Real-space Grid (nr,dr,rmax): 1503    0.0066577896   10.0000000000
Spherical Bessel Basis (nsws,lmax,cutoff):   37    2  176.3967570603
Confining potential (l,width,scale):  0    3.0000000000  100.0000000000
  1         -0.3348525927   -0.2401819449    0.2820953128   -0.2388448411
  2         -0.4038948821   -0.2405504229    0.2866889240   -0.2416217444
  3         -0.4360732773   -0.2390089543    0.2890729861   -0.2443653791
  4         -0.4497314704   -0.2383264046    0.2899315599   -0.2456060208
  5         -0.4551901081   -0.2381357631    0.2901452306   -0.2460489407
  6         -0.4573594294   -0.2381000300    0.2901742710   -0.2461947705
  7         -0.4582326910   -0.2381004501    0.2901659451   -0.2462415077
  8         -0.4585900702   -0.2381055523    0.2901559649   -0.2462564278
  9         -0.4587384807   -0.2381092319    0.2901497571   -0.2462612174
 10         -0.4588008132   -0.2381112609    0.2901465144   -0.2462627659
 11         -0.4588272086   -0.2381122698    0.2901449456   -0.2462632682
 12         -0.4588384507   -0.2381127465    0.2901442163   -0.2462634302
 13         -0.4588432580   -0.2381129655    0.2901438848   -0.2462634814
 14         -0.4588453195   -0.2381130645    0.2901437362   -0.2462634968
 15         -0.4588462053   -0.2381131088    0.2901436700   -0.2462635011
 16         -0.4588465865   -0.2381131284    0.2901436407   -0.2462635020
 17         -0.4588467508   -0.2381131372    0.2901436278   -0.2462635020
 18         -0.4588468216   -0.2381131410    0.2901436222   -0.2462635019
Atom SCF converged after  18 iterations to a total energy of     -0.45884682

Atom SCF Calculation for O  : Z (AE atom) =   8 : Z (PS atom) =   6
Config String: 2s2.0 2p4.0
Orbitals (num,occ):  2     2.00 4.00
Orbitals   (num,l):  2        0    1
Real-space Grid (nr,dr,rmax): 1503    0.0066577896   10.0000000000
Spherical Bessel Basis (nsws,lmax,cutoff):   37    2  176.3967570603
Confining potential (l,width,scale):  0    3.0000000000  100.0000000000
Confining potential (l,width,scale):  1    3.0000000000  100.0000000000
  1         -8.3209332552   -7.4828484739   10.1554312602   -2.1270270195
  2        -15.1405599232   -3.0474882742   13.6590820486   -2.5134754209
  3        -15.5174094640   -3.1101891961   13.6243211040   -2.6472956001
  4        -15.7606118231   -3.0805775314   13.6668776248   -2.7100307789
  5        -15.8308896490   -3.0881936416   13.6633910567   -2.7338682066
  6        -15.8678540393   -3.0862312957   13.6673103078   -2.7443897972
  7        -15.8801393942   -3.0873360689   13.6669183555   -2.7485230919
  8        -15.8859601688   -3.0872977830   13.6672813272   -2.7502957173
  9        -15.8880580832   -3.0874730763   13.6672320183   -2.7510066526
 10        -15.8889924584   -3.0874981416   13.6672623218   -2.7513066537
 11        -15.8893459980   -3.0875277929   13.6672548500   -2.7514284384
 12        -15.8894977936   -3.0875355600   13.6672566096   -2.7514793465
 13        -15.8895569380   -3.0875407304   13.6672553199   -2.7515001537
 14        -15.8895817884   -3.0875424467   13.6672552475   -2.7515088021
 15        -15.8895916441   -3.0875433561   13.6672550136   -2.7515123499
 16        -15.8895957327   -3.0875436929   13.6672549605   -2.7515138192
 17        -15.8895973717   -3.0875438525   13.6672549179   -2.7515144231
 18        -15.8895980466   -3.0875439149   13.6672549044   -2.7515146726
 19        -15.8895983189   -3.0875439428   13.6672548968   -2.7515147752
 20        -15.8895984306   -3.0875439540   13.6672548940   -2.7515148175
 21        -15.8895984758   -3.0875439588   13.6672548927   -2.7515148349
Atom SCF converged after  21 iterations to a total energy of    -15.88959848

Atom SCF Calculation for Fe : Z (AE atom) =  26 : Z (PS atom) =  16
Config String: 3s2.0 3p6.0 3d6.0 4s2.0 4p0.0
Orbitals (num,occ):  5     2.00 6.00 6.00 2.00 0.00
Orbitals   (num,l):  5        0    1    2    0    1
Real-space Grid (nr,dr,rmax): 1503    0.0066577896   10.0000000000
Spherical Bessel Basis (nsws,lmax,cutoff):   37    4  176.3967570603
Confining potential (l,width,scale):  0    3.0000000000  100.0000000000
Confining potential (l,width,scale):  1    3.0000000000  100.0000000000
Confining potential (l,width,scale):  2    3.0000000000  100.0000000000
  1       -111.4005172118  -52.5575611559   72.2164000725   -4.0901868950
  2       -116.6635475262  -20.5601904919   91.7007084249   -2.2962490369
  3       -121.6156136875  -23.2753453277   92.4544705195   -2.7706732816
  4       -123.0066153699  -21.4164712440   94.7136519632   -2.9394413820
  5       -123.8168122141  -22.6370400734   94.1384349420   -3.0798102909
  6       -123.9055073486  -21.7222843370   94.9342614757   -3.0846520419
  7       -124.0956886241  -22.4138747628   94.4617720360   -3.1224050559
  8       -124.0492758687  -21.8887017510   94.8692044073   -3.1096545890
  9       -124.1222324005  -22.2877514631   94.5777385101   -3.1254730624
 10       -124.0894611846  -22.0431086758   94.7620026738   -3.1177312036
 11       -124.1066906466  -22.1417456915   94.6895757605   -3.1215019185
 12       -124.1027421480  -22.1090398813   94.7144439268   -3.1205307857
 13       -124.1039552528  -22.1131641559   94.7116547863   -3.1207645739
 14       -124.1041718268  -22.1127261003   94.7121170471   -3.1207931979
 15       -124.1043563153  -22.1126782042   94.7122440208   -3.1208211382
 16       -124.1044853288  -22.1126702816   94.7123114748   -3.1208409484
 17       -124.1045734258  -22.1126674103   94.7123551926   -3.1208545095
 18       -124.1046334193  -22.1126657134   94.7123845864   -3.1208637603
 19       -124.1046742816  -22.1126645462   94.7124045128   -3.1208700757
 20       -124.1047021281  -22.1126636961   94.7124180731   -3.1208743926
 21       -124.1047211147  -22.1126630559   94.7124273290   -3.1208773473
 22       -124.1047340666  -22.1126625637   94.7124336643   -3.1208793718
 23       -124.1047429056  -22.1126621807   94.7124380116   -3.1208807606
 24       -124.1047489402  -22.1126618812   94.7124410017   -3.1208817142
 25       -124.1047530616  -22.1126616468   94.7124430628   -3.1208823696
 26       -124.1047558771  -22.1126614637   94.7124444863   -3.1208828204
 27       -124.1047578011  -22.1126613212   94.7124454714   -3.1208831306
 28       -124.1047591161  -22.1126612109   94.7124461541   -3.1208833444
 29       -124.1047600152  -22.1126611259   94.7124466281   -3.1208834917
 30       -124.1047606300  -22.1126610607   94.7124469575   -3.1208835933
 31       -124.1047610504  -22.1126610110   94.7124471869   -3.1208836634
 32       -124.1047613380  -22.1126609733   94.7124473467   -3.1208837118
 33       -124.1047615347  -22.1126609447   94.7124474583   -3.1208837453
 34       -124.1047616693  -22.1126609232   94.7124475361   -3.1208837684
 35       -124.1047617614  -22.1126609071   94.7124475906   -3.1208837843
Atom SCF converged after  35 iterations to a total energy of   -124.10476176

Atom SCF Calculation for H  : Z (AE atom) =   1 : Z (PS atom) =   1
Config String: 1s1.0
Orbitals (num,occ):  1     1.00
Orbitals   (num,l):  1        0
Real-space Grid (nr,dr,rmax): 1503    0.0066577896   10.0000000000
Spherical Bessel Basis (nsws,lmax,cutoff):   37    2  176.3967570603
Confining potential (l,width,scale):  0    3.0000000000  100.0000000000
  1         -0.3348525927   -0.2401819449    0.2820953128   -0.2388448411
  2         -0.4038948821   -0.2405504229    0.2866889240   -0.2416217444
  3         -0.4360732773   -0.2390089543    0.2890729861   -0.2443653791
  4         -0.4497314704   -0.2383264046    0.2899315599   -0.2456060208
  5         -0.4551901081   -0.2381357631    0.2901452306   -0.2460489407
  6         -0.4573594294   -0.2381000300    0.2901742710   -0.2461947705
  7         -0.4582326910   -0.2381004501    0.2901659451   -0.2462415077
  8         -0.4585900702   -0.2381055523    0.2901559649   -0.2462564278
  9         -0.4587384807   -0.2381092319    0.2901497571   -0.2462612174
 10         -0.4588008132   -0.2381112609    0.2901465144   -0.2462627659
 11         -0.4588272086   -0.2381122698    0.2901449456   -0.2462632682
 12         -0.4588384507   -0.2381127465    0.2901442163   -0.2462634302
 13         -0.4588432580   -0.2381129655    0.2901438848   -0.2462634814
 14         -0.4588453195   -0.2381130645    0.2901437362   -0.2462634968
 15         -0.4588462053   -0.2381131088    0.2901436700   -0.2462635011
 16         -0.4588465865   -0.2381131284    0.2901436407   -0.2462635020
 17         -0.4588467508   -0.2381131372    0.2901436278   -0.2462635020
 18         -0.4588468216   -0.2381131410    0.2901436222   -0.2462635019
Atom SCF converged after  18 iterations to a total energy of     -0.45884682

Atom SCF Calculation for O  : Z (AE atom) =   8 : Z (PS atom) =   6
Config String: 2s2.0 2p4.0
Orbitals (num,occ):  2     2.00 4.00
Orbitals   (num,l):  2        0    1
Real-space Grid (nr,dr,rmax): 1503    0.0066577896   10.0000000000
Spherical Bessel Basis (nsws,lmax,cutoff):   37    2  176.3967570603
Confining potential (l,width,scale):  0    3.0000000000  100.0000000000
Confining potential (l,width,scale):  1    3.0000000000  100.0000000000
  1         -8.3209332552   -7.4828484739   10.1554312602   -2.1270270195
  2        -15.1405599232   -3.0474882742   13.6590820486   -2.5134754209
  3        -15.5174094640   -3.1101891961   13.6243211040   -2.6472956001
  4        -15.7606118231   -3.0805775314   13.6668776248   -2.7100307789
  5        -15.8308896490   -3.0881936416   13.6633910567   -2.7338682066
  6        -15.8678540393   -3.0862312957   13.6673103078   -2.7443897972
  7        -15.8801393942   -3.0873360689   13.6669183555   -2.7485230919
  8        -15.8859601688   -3.0872977830   13.6672813272   -2.7502957173
  9        -15.8880580832   -3.0874730763   13.6672320183   -2.7510066526
 10        -15.8889924584   -3.0874981416   13.6672623218   -2.7513066537
 11        -15.8893459980   -3.0875277929   13.6672548500   -2.7514284384
 12        -15.8894977936   -3.0875355600   13.6672566096   -2.7514793465
 13        -15.8895569380   -3.0875407304   13.6672553199   -2.7515001537
 14        -15.8895817884   -3.0875424467   13.6672552475   -2.7515088021
 15        -15.8895916441   -3.0875433561   13.6672550136   -2.7515123499
 16        -15.8895957327   -3.0875436929   13.6672549605   -2.7515138192
 17        -15.8895973717   -3.0875438525   13.6672549179   -2.7515144231
 18        -15.8895980466   -3.0875439149   13.6672549044   -2.7515146726
 19        -15.8895983189   -3.0875439428   13.6672548968   -2.7515147752
 20        -15.8895984306   -3.0875439540   13.6672548940   -2.7515148175
 21        -15.8895984758   -3.0875439588   13.6672548927   -2.7515148349
Atom SCF converged after  21 iterations to a total energy of    -15.88959848

BC: Task: SINGLEPOINT
BC: +++++++++++++++ Summary of boundary conditions ++++++++++++++
BC: |       Component       |     Keyword     |   Periodicity   |
BC: |                       |                 |     X  Y  Z [1] |
BC: |-----------------------------------------------------------|
BC: | Ion-ion               | ion_ion_bc [2]  |     P  P  P     |
BC: | Local pseudopotential | pspot_bc [3]    |     P  P  P     |
BC: +++++++++++++++++++++++++++++++++++++++++++++++++++++++++++++
BC: P: Periodic, O: Open.
BC: [1] Not strictly along X, Y, Z but rather along lattice vectors A1, A2, A3.
BC: [2] Also affected by: pbc_correction_cutoff, cutoff_coulomb_type,
BC:     is_smeared_ion_rep, is_implicit_solvent, openbc_ion_ion.
BC: [3] Also affected by: is_smeared_ion_rep, is_implicit_solvent, openbc_pspot.

Determining parallel strategy ...
... using space-filling curve
... NGWF load balancing: max     13;  min      6;  average      8
... Projector load balancing: max     23;  min     18;  average     21
... Hubbard Projector load balancing: max      5;  min      0;  average      1
... done
Calculating Ewald energy ...
              Ewald: real-space energy =          276.146724
        Ewald: reciprocal-space energy =           32.367774
         Ewald: (sum_charge)**2 energy =           16.660578
         Ewald: (sum_charge**2) energy =           17.162568
                          Ewald energy =          274.691352
Basis initialisation ...
... NGWF spheres initialised
... Projector spheres initialised
... Hubbard Projector spheres initialised
... NGWF tight boxes initialised
... Projector tight boxes initialised
... Tight-boxes gathered
... NGWF basis size (local,global):        109551       419067
... PAW projector initialisation
... done

============================= Charge Augmentation ==============================
                           Aug box size:   35 x  35 x  35
================================================================================
... Hubbard projector initialisation

========================== Sparse matrix information ===========================
                        Overlap matrix filling: 100.00%
                        Density kernel filling: 100.00% (known to be dense)
              NGWF-Proj overlap matrix filling: 100.00%
                    Aug Overlap matrix filling: 100.00%
      NGWF-Hubbard Proj overlap matrix filling: 100.00%
                             VW matrix filling: 100.00%
                    Hamiltonian matrix filling: 100.00%
                  NGWF diagonal matrix filling:  11.54%
                             KS matrix filling: 100.00% 
                           KSKS matrix filling: 100.00% 
================================================================================

Sparse matrix initialisation ...
 done
NGWF initialisation ... done
============ Calculation of NGWF S^-1 using Hotelling algorithm ================ 
     Iteration  |  Spin  |  Frobenius norm and Maximum abs value (of I-S*S_n^-1)
         1           1      0.68132136E+01     0.98124401E+00
         1           2      0.68132136E+01     0.98124401E+00
         2           1      0.66497200E+01     0.96285851E+00
         2           2      0.66497200E+01     0.96285851E+00
         3           1      0.63748858E+01     0.92716444E+00
         3           2      0.63748858E+01     0.92716444E+00
         4           1      0.59569173E+01     0.85986097E+00
         4           2      0.59569173E+01     0.85986097E+00
         5           1      0.53761926E+01     0.74023155E+00
         5           2      0.53761926E+01     0.74023155E+00
         6           1      0.46478690E+01     0.66817405E+00
         6           2      0.46478690E+01     0.66817405E+00
         7           1      0.39088938E+01     0.62343020E+00
         7           2      0.39088938E+01     0.62343020E+00
         8           1      0.32971805E+01     0.57754967E+00
         8           2      0.32971805E+01     0.57754967E+00
         9           1      0.26921963E+01     0.52050613E+00
         9           2      0.26921963E+01     0.52050613E+00
        10           1      0.19617738E+01     0.43484804E+00
        10           2      0.19617738E+01     0.43484804E+00
        11           1      0.12227459E+01     0.31141641E+00
        11           2      0.12227459E+01     0.31141641E+00
        12           1      0.61454834E+00     0.17511602E+00
        12           2      0.61454834E+00     0.17511602E+00
        13           1      0.18586882E+00     0.57000746E-01
        13           2      0.18586882E+00     0.57000746E-01
        14           1      0.18119223E-01     0.60724371E-02
        14           2      0.18119223E-01     0.60724371E-02
        15           1      0.18979171E-03     0.69335732E-04
        15           2      0.18979171E-03     0.69335732E-04
        16           1      0.23967825E-07     0.91554013E-08
        16           2      0.23967825E-07     0.91554013E-08
        17           1      0.39043755E-14     0.17763568E-14
        17           2      0.39043755E-14     0.17763568E-14
================================================================================
 done

################################################################################
DFT+U information on atom      1 of Hubbard species Fe  
################################################################################
Using the on-atom contravariant metric, the NGWF hydrogenic character
| < \phi | \psi > |**2 matrix of Hubbard site      1 is 
  m_l =   -2          -1           0           1           2         SUM
  0.00000000 -0.00000000 -0.00000000 -0.00000000 -0.00000000 -0.00000000
 -0.00000000  0.00000000  0.00000000  0.00000000  0.00000000  0.00000000
  0.00000000 -0.00000000 -0.00000000  0.00000000 -0.00000000 -0.00000000
 -0.00000000  0.00000000 -0.00000000  0.00000000 -0.00000000 -0.00000000
  0.51067235 -0.00000000  0.00000000  0.00000000 -0.00000000  0.51067235
 -0.00000000  0.51072822  0.00000000 -0.00000000 -0.00000000  0.51072822
  0.00000000  0.00000000  0.51414474  0.00000000  0.00000000  0.51414474
  0.00000000 -0.00000000  0.00000000  0.51080414 -0.00000000  0.51080414
 -0.00000000 -0.00000000  0.00000000 -0.00000000  0.51393269  0.51393269
 -0.00000000  0.00000000  0.00000000  0.00000000  0.00000000  0.00000000
  0.00000000 -0.00000000  0.00000000 -0.00000000 -0.00000000 -0.00000000
 -0.00000000  0.00000000 -0.00000000  0.00000000 -0.00000000  0.00000000
 -0.00000000 -0.00000000 -0.00000000 -0.00000000 -0.00000000 -0.00000000
Total hydrogenic projection of NGWFs on this atom             2.56028214
################################################################################


################################################################################
Using the subspace contravariant metric, the NGWF hydrogenic character
| < \phi | \psi > |**2 matrix of Hubbard site      1 is 
  m_l =   -2          -1           0           1           2         SUM
  0.51067235 -0.00000000  0.00000000  0.00000000 -0.00000000  0.51067235
 -0.00000000  0.51072822  0.00000000 -0.00000000 -0.00000000  0.51072822
  0.00000000  0.00000000  0.51414474  0.00000000  0.00000000  0.51414474
  0.00000000 -0.00000000  0.00000000  0.51080414 -0.00000000  0.51080414
 -0.00000000 -0.00000000  0.00000000 -0.00000000  0.51393269  0.51393269
Total hydrogenic projection of NGWFs on this correlated site  2.56028214
################################################################################

Calculating core density ...
================================= Core Density =================================
               Core den box size:   39 x  39 x  39
================================================================================
 ... done
Density renormalisation, spin  1 ...
Target Charge:    31.000000000000 ; Input Charge:    32.000462175932
Density renormalisation, spin  2 ...
Target Charge:    30.000000000000 ; Input Charge:    32.000462175932
Density kernel initialisation
 
======= Optimisation of K by Palser-Manolopoulos canonical purification ======== 
         Iteration  |  Band structure energy |    c_n   
               1         -40.02716770703964    0.6152443
               2         -40.76940245126426    0.6088208
               3         -41.62137555322632    0.6002312
               4         -42.58932704327248    0.5898315
               5         -43.71166432606307    0.5778058
               6         -45.02185991193787    0.5666035
               7         -46.45115394836018    0.5700774
               8         -47.73554469438056    0.6257809
               9         -48.49809892397736    0.7625906
              10         -48.72261381478253    0.8648709
              11         -48.76025107994401    0.8843857
              12         -48.77100066735723    0.8808621
              13         -48.78037277813989    0.8747738
              14         -48.79005381396198    0.8677211
              15         -48.79999353855695    0.8596184
              16         -48.81009780552476    0.8503938
              17         -48.82023592248358    0.8400179
              18         -48.83024092959548    0.8285197
              19         -48.83991671848027    0.8159932
              20         -48.84905437439948    0.8025797
              21         -48.85745797397003    0.7884119
              22         -48.86497581184290    0.7735118
              23         -48.87152801139995    0.7576598
              24         -48.87711926576332    0.7402765
              25         -48.88182969100781    0.7203843
              26         -48.88578673217621    0.6967048
              27         -48.88913009012060    0.6679320
              28         -48.89198179523999    0.6332604
              29         -48.89442139139545    0.5934824
              30         -48.89644907693908    0.5531349
              31         -48.89794013826334    0.5216136
              32         -48.89872964085275    0.5054828
              33         -48.89894392188536    0.5004648
              34         -48.89896191992568    0.5000021
              35         -48.89896208711421    0.4999988
              36         -48.89896208713095    0.4999988
Termination criterion satisfied: band energy change below threshold.
Final occupancy bounds: [    0.00000000000000:    1.00000000000000]
Closest occupancy to 0.5:     1.00000000000000
================================================================================
 
======= Optimisation of K by Palser-Manolopoulos canonical purification ======== 
         Iteration  |  Band structure energy |    c_n   
               1         -39.08171521228931    0.5945418
               2         -39.91464400194286    0.5876446
               3         -40.86890920894031    0.5786255
               4         -41.94397379041461    0.5686851
               5         -43.18120830298916    0.5593359
               6         -44.59448578770728    0.5573289
               7         -46.02608946323087    0.5885746
               8         -47.09908199478983    0.6923389
               9         -47.54535675952923    0.8065624
              10         -47.63465417360567    0.8340011
              11         -47.65907839723010    0.8273723
              12         -47.67972789352928    0.8149935
              13         -47.70145647656064    0.7994394
              14         -47.72407317825814    0.7801636
              15         -47.74704318403000    0.7567485
              16         -47.76949119449807    0.7292931
              17         -47.79020508236898    0.6988597
              18         -47.80783735634688    0.6676534
              19         -47.82140015374321    0.6381047
              20         -47.83085649148062    0.6106834
              21         -47.83718040837185    0.5831440
              22         -47.84160038717894    0.5558165
              23         -47.84481843571327    0.5435604
              24         -47.84699367207558    0.5762812
              25         -47.84816136127857    0.6394578
              26         -47.84856523985927    0.6477981
              27         -47.84875682124927    0.6187523
              28         -47.84893926866948    0.5810095
              29         -47.84911692092079    0.5402628
              30         -47.84927179258985    0.5102754
              31         -47.84937765266592    0.5006577
              32         -47.84941994519280    0.5000026
              33         -47.84942523965512    0.5000000
              34         -47.84942531079756    0.4999992
              35         -47.84942531081010    0.4999992
Termination criterion satisfied: band energy change below threshold.
Final occupancy bounds: [    0.00000000000000:    1.00000000000000]
Closest occupancy to 0.5:     1.00000000000000
================================================================================

Writing density kernel to file "Fe_H2O_6_LowSpin_NGWFSP.dkn" ... done

>>> Optimising kernel for current NGWFs:
   Initial electron number for spin 1:      31.00000000
   Initial electron number for spin 2:      30.00000000
     Final electron number for spin 1:      31.00000000
     Final electron number for spin 2:      30.00000000

=================== Penalty functional idempotency correction ==================
 RMS occupancy error at iteration   1:  0.000000 (step -0.5000 Ne1=     31.0000)
                                                               Ne2=     30.0000
            Final RMS occupancy error   :  0.000000 (Ne1=     31.0000)
                                                     Ne2=     30.0000
            Final occupancy bounds spin 1: [  0.000,  1.000]
            Final occupancy bounds spin 2: [  0.000,  1.000]
================================================================================

................................................................................
<<<<<<<<<<<<<< LNV (Original version) density kernel optimisation >>>>>>>>>>>>>>
~~~~~~~~~~~~~~~~~~~~~~~~~~~~~~~~~~~~~~~~~~~~~~~~~~~~~~~~~~~~~~~~~~~~~~~~~~~~~~~~
   iter  |      energy (Eh)       | rms gradient |  commutator  |   dE (Eh)

################################################################################
DFT+U information on atom      1 of Hubbard species Fe  
################################################################################
Occupancy matrix of Hubbard site      1 and spin      1 is 
  m_l =   -2          -1           0           1           2
  0.99383853  0.00505425  0.00267587  0.00353706 -0.00026612
  0.00505282  0.98832678 -0.00220626  0.00355663  0.00094447
  0.00267832 -0.00220756  0.99839878 -0.00138878  0.00021396
  0.00353868  0.00355864 -0.00138696  0.99183140 -0.00035510
 -0.00026399  0.00094277  0.00021301 -0.00035598  0.99967986
################################################################################
Occupancy matrix of Hubbard site      1 and spin      2 is 
  m_l =   -2          -1           0           1           2
  0.99376306  0.00482852  0.00336184  0.00311925 -0.00034720
  0.00482720  0.98765189 -0.00015540  0.00230748  0.00070207
  0.00336452 -0.00015503  0.99216148  0.00241030  0.00095117
  0.00312096  0.00230918  0.00240995  0.98951874 -0.00080387
 -0.00034508  0.00070024  0.00095003 -0.00080489  0.99959275
################################################################################
Total occupancy of Hubbard site      1 is         9.93476326 e
Local magnetic moment of Hubbard site      1 is   0.00938742 mu_B
DFT+U energy of Hubbard site      1 is            0.00473209 Ha
################################################################################

      ideal mu1:      -0.122587033460
      ideal mu2:      -0.111593170570
             Q0:        -220.568818017514
             G0:     -12.263309796406
   RMS gradient:       0.101070116801
    Initial Ne1:      31.00000000
    Initial Ne2:      30.00000000
      Final Ne1:      31.00000000
      Final Ne2:      30.00000000

=================== Penalty functional idempotency correction ==================
 RMS occupancy error at iteration   1:  0.003795 (step -0.4880 Ne1=     31.0000)
                                                               Ne2=     30.0000
 RMS occupancy error at iteration   2:  0.000037 (step -0.5000 Ne1=     31.0000)
                                                               Ne2=     30.0000
            Final RMS occupancy error   :  0.000000 (Ne1=     31.0000)
                                                     Ne2=     30.0000
            Final occupancy bounds spin 1: [  0.000,  1.000]
            Final occupancy bounds spin 2: [  0.000,  1.000]
================================================================================

    1        -2.205688180175E+02     1.0107E-01     5.7506E-02

################################################################################
DFT+U information on atom      1 of Hubbard species Fe  
################################################################################
Occupancy matrix of Hubbard site      1 and spin      1 is 
  m_l =   -2          -1           0           1           2
  0.97991200  0.01378072  0.00824181  0.01345407 -0.00293478
  0.01377625  0.96247457 -0.00720213  0.01113536  0.00569120
  0.00824932 -0.00720631  0.99567427 -0.00411876  0.00160175
  0.01345927  0.01114191 -0.00411318  0.97528131 -0.00051044
 -0.00292918  0.00568753  0.00159861 -0.00051284  0.99863905
################################################################################
Occupancy matrix of Hubbard site      1 and spin      2 is 
  m_l =   -2          -1           0           1           2
  0.97979253  0.01300345  0.01043537  0.01216550 -0.00315930
  0.01299934  0.95980052  0.00129139  0.00638247  0.00477722
  0.01044366  0.00129417  0.97017384  0.01002865  0.00428469
  0.01217097  0.00638797  0.01002567  0.96757355 -0.00199362
 -0.00315374  0.00477311  0.00428071 -0.00199645  0.99835982
################################################################################
Total occupancy of Hubbard site      1 is         9.78768145 e
Local magnetic moment of Hubbard site      1 is   0.03628096 mu_B
DFT+U energy of Hubbard site      1 is            0.01494284 Ha
################################################################################

      ideal mu1:      -0.274518998834
      ideal mu2:      -0.269004806589
             Q0:        -221.775966113064
             G0:     -24.080614516024
   RMS gradient:       0.101264196107
    Initial Ne1:      30.99999993
    Initial Ne2:      29.99999991
      Final Ne1:      31.00000000
      Final Ne2:      30.00000000

=================== Penalty functional idempotency correction ==================
 RMS occupancy error at iteration   1:  0.024786 (step -0.4227 Ne1=     31.0000)
                                                               Ne2=     30.0000
 RMS occupancy error at iteration   2:  0.001327 (step -0.4989 Ne1=     31.0000)
                                                               Ne2=     30.0000
 RMS occupancy error at iteration   3:  0.000007 (step -0.5000 Ne1=     31.0000)
                                                               Ne2=     30.0000
            Final RMS occupancy error   :  0.000000 (Ne1=     31.0000)
                                                     Ne2=     30.0000
            Final occupancy bounds spin 1: [  0.000,  1.000]
            Final occupancy bounds spin 2: [  0.000,  1.000]
================================================================================

    2        -2.217759661131E+02     1.0126E-01     5.7655E-02    -1.2071E+00

################################################################################
DFT+U information on atom      1 of Hubbard species Fe  
################################################################################
Occupancy matrix of Hubbard site      1 and spin      1 is 
  m_l =   -2          -1           0           1           2
  0.92593152  0.04277454  0.02825917  0.05211411 -0.01397860
  0.04275939  0.86731744 -0.02553888  0.03889651  0.02454896
  0.02828513 -0.02555351  0.98537124 -0.01472026  0.00711526
  0.05213273  0.03891965 -0.01470039  0.91236924 -0.00037550
 -0.01396129  0.02453959  0.00710420 -0.00038331  0.99193288
################################################################################
Occupancy matrix of Hubbard site      1 and spin      2 is 
  m_l =   -2          -1           0           1           2
  0.92566152  0.03974426  0.03650337  0.04742937 -0.01474411
  0.03973036  0.85614458  0.00959306  0.02048412  0.02097238
  0.03653268  0.00960717  0.88248275  0.03850635  0.01722543
  0.04744875  0.02050363  0.03849275  0.88558555 -0.00558952
 -0.01472695  0.02096146  0.01721077 -0.00559868  0.99095515
################################################################################
Total occupancy of Hubbard site      1 is         9.22375187 e
Local magnetic moment of Hubbard site      1 is   0.14209278 mu_B
DFT+U energy of Hubbard site      1 is            0.04840321 Ha
################################################################################

      ideal mu1:      -0.612842304432
      ideal mu2:      -0.618464950507
             Q0:        -223.786753595996
             G0:     -21.445059125819
   RMS gradient:       0.088806061939
    Initial Ne1:      30.99999994
    Initial Ne2:      29.99999993
      Final Ne1:      31.00000000
      Final Ne2:      30.00000000

=================== Penalty functional idempotency correction ==================
 RMS occupancy error at iteration   1:  0.056547 (step -0.3445 Ne1=     31.0000)
                                                               Ne2=     30.0000
 RMS occupancy error at iteration   2:  0.004794 (step -0.4933 Ne1=     31.0000)
                                                               Ne2=     30.0000
 RMS occupancy error at iteration   3:  0.000068 (step -0.5004 Ne1=     31.0000)
                                                               Ne2=     30.0000
            Final RMS occupancy error   :  0.000000 (Ne1=     31.0000)
                                                     Ne2=     30.0000
            Final occupancy bounds spin 1: [ -0.000,  1.000]
            Final occupancy bounds spin 2: [ -0.000,  1.000]
================================================================================

    3        -2.237867535960E+02     8.8806E-02     5.0597E-02    -2.0108E+00

################################################################################
DFT+U information on atom      1 of Hubbard species Fe  
################################################################################
Occupancy matrix of Hubbard site      1 and spin      1 is 
  m_l =   -2          -1           0           1           2
  0.83355091  0.08476646  0.06025496  0.11822104 -0.03203560
  0.08473522  0.71571422 -0.05406602  0.08429892  0.05469744
  0.06031107 -0.05409652  0.96720581 -0.03353384  0.01589654
  0.11826234  0.08434891 -0.03348951  0.80392317  0.00027750
 -0.03199996  0.05468033  0.01587308  0.00026040  0.97684262
################################################################################
Occupancy matrix of Hubbard site      1 and spin      2 is 
  m_l =   -2          -1           0           1           2
  0.83255497  0.07718435  0.08073209  0.10730904 -0.03391227
  0.07715569  0.68811930  0.02872117  0.04332250  0.04654826
  0.08079810  0.02875849  0.73217725  0.08132090  0.03836370
  0.10735154  0.04336502  0.08129127  0.74939346 -0.01066882
 -0.03387705  0.04652783  0.03833151 -0.01068855  0.97470855
################################################################################
Total occupancy of Hubbard site      1 is         8.27419025 e
Local magnetic moment of Hubbard site      1 is   0.32028320 mu_B
DFT+U energy of Hubbard site      1 is            0.08524918 Ha
################################################################################

      ideal mu1:      -0.975450002596
      ideal mu2:      -0.986267128678
             Q0:        -224.951468162577
             G0:      -9.355572371508
   RMS gradient:       0.074054769654
    Initial Ne1:      31.00000001
    Initial Ne2:      30.00000010
      Final Ne1:      31.00000000
      Final Ne2:      30.00000000

=================== Penalty functional idempotency correction ==================
 RMS occupancy error at iteration   1:  0.067525 (step -0.3213 Ne1=     31.0000)
                                                               Ne2=     30.0000
 RMS occupancy error at iteration   2:  0.005513 (step -0.4911 Ne1=     31.0000)
                                                               Ne2=     30.0000
 RMS occupancy error at iteration   3:  0.000073 (step -0.5004 Ne1=     31.0000)
                                                               Ne2=     30.0000
            Final RMS occupancy error   :  0.000000 (Ne1=     31.0000)
                                                     Ne2=     30.0000
            Final occupancy bounds spin 1: [ -0.000,  1.000]
            Final occupancy bounds spin 2: [ -0.000,  1.000]
================================================================================

    4        -2.249514681626E+02     7.4055E-02     4.2128E-02    -1.1647E+00

################################################################################
DFT+U information on atom      1 of Hubbard species Fe  
################################################################################
Occupancy matrix of Hubbard site      1 and spin      1 is 
  m_l =   -2          -1           0           1           2
  0.75062712  0.11606890  0.08677236  0.17592737 -0.04674973
  0.11602533  0.59041040 -0.07692764  0.12299070  0.07922563
  0.08685404 -0.07697044  0.94997152 -0.05092835  0.02287540
  0.17598835  0.12306326 -0.05086220  0.70655251  0.00056628
 -0.04669889  0.07920324  0.02284203  0.00054072  0.95955575
################################################################################
Occupancy matrix of Hubbard site      1 and spin      2 is 
  m_l =   -2          -1           0           1           2
  0.74824414  0.10370480  0.12014221  0.15919238 -0.04985254
  0.10366483  0.54638325  0.04957386  0.06300114  0.06702541
  0.12024173  0.04963480  0.59897569  0.11372305  0.05612650
  0.15925472  0.06306339  0.11368157  0.63121336 -0.01498702
 -0.04980235  0.06699819  0.05607952 -0.01501616  0.95632935
################################################################################
Total occupancy of Hubbard site      1 is         7.43826310 e
Local magnetic moment of Hubbard site      1 is   0.47597151 mu_B
DFT+U energy of Hubbard site      1 is            0.09877906 Ha
################################################################################

      ideal mu1:      -1.178256468037
      ideal mu2:      -1.187009179333
    5        -2.254095051747E+02     7.1372E-02     4.0560E-02    -4.5804E-01
Finished density kernel iterations (   5)

Writing density kernel to file "Fe_H2O_6_LowSpin_NGWFSP.dkn" ... done


>>> Density kernel optimised for the current NGWF basis:
     ~~~~~~~~~~~~~~~~~~~~~~~~~~~~~~~~~~~~~~~~~~~~~~~~~~~~~~~~~~~
     Total energy                =  -2.25409505174691E+02  Eh
     Estimated bandgap (UP spin) =  -1.1522E-01  Eh
     Estimated bandgap (DN spin) =  -1.2382E-01  Eh
     RMS occupancy error         =   2.3790E-08
     [H,K] commutator            =   4.0560E-02
     UP spin occupancy bounds    = [ -0.000:  1.000]
     DN spin occupancy bounds    = [ -0.000:  1.000]
     ~~~~~~~~~~~~~~~~~~~~~~~~~~~~~~~~~~~~~~~~~~~~~~~~~~~~~~~~~~~




################################################################################
########################### NGWF CG iteration  001 #############################
################################################################################
****** Reciprocal space K.E. preconditioning with k_zero =  3.0000 a0^-1 *******

>>> Checking for convergence of NGWFs:   NOT CONVERGED
  ========================================================================
         NGWF RMS gradient =  1.2891E-03 >  2.0000E-06  | above tolerance
  ========================================================================

>>> Improving NGWFs using line search:
============ Calculation of NGWF S^-1 using Hotelling algorithm ================ 
     Iteration  |  Spin  |  Frobenius norm and Maximum abs value (of I-S*S_n^-1)
         1           1      0.86206293E-01     0.32108791E-01
         1           2      0.86342280E-01     0.31970975E-01
         2           1      0.11858356E-02     0.40919971E-03
         2           2      0.11727926E-02     0.40486909E-03
         3           1      0.40611004E-06     0.14410394E-06
         3           2      0.39677149E-06     0.14133193E-06
         4           1      0.48596010E-13     0.18207658E-13
         4           2      0.47210586E-13     0.18207658E-13
================================================================================

################################################################################
DFT+U information on atom      1 of Hubbard species Fe  
################################################################################
Occupancy matrix of Hubbard site      1 and spin      1 is 
  m_l =   -2          -1           0           1           2
  0.74821724  0.11705428  0.08774919  0.17790841 -0.04713288
  0.11701040  0.58713693 -0.07750753  0.12442547  0.08012497
  0.08783182 -0.07755053  0.94977465 -0.05148287  0.02308814
  0.17797005  0.12449888 -0.05141599  0.70382747  0.00033613
 -0.04708138  0.08010256  0.02305446  0.00031019  0.95955562
################################################################################
Occupancy matrix of Hubbard site      1 and spin      2 is 
  m_l =   -2          -1           0           1           2
  0.74566093  0.10448658  0.12173011  0.16093662 -0.05031921
  0.10444634  0.54232261  0.05058863  0.06375516  0.06777110
  0.12183100  0.05065066  0.59493336  0.11479314  0.05679068
  0.16099961  0.06381816  0.11475132  0.62775944 -0.01540826
 -0.05026838  0.06774379  0.05674323 -0.01543786  0.95623879
################################################################################
Total occupancy of Hubbard site      1 is         7.41542704 e
Local magnetic moment of Hubbard site      1 is   0.48159678 mu_B
DFT+U energy of Hubbard site      1 is            0.09872962 Ha
################################################################################

============ Calculation of NGWF S^-1 using Hotelling algorithm ================ 
     Iteration  |  Spin  |  Frobenius norm and Maximum abs value (of I-S*S_n^-1)
         1           1      0.62744730E+00     0.22664881E+00
         1           2      0.62882863E+00     0.22571110E+00
         2           1      0.63221342E-01     0.20818178E-01
         2           2      0.62538343E-01     0.20593905E-01
         3           1      0.12057183E-02     0.39951716E-03
         3           2      0.11775842E-02     0.39258717E-03
         4           1      0.50986550E-06     0.17247291E-06
         4           2      0.48571155E-06     0.16644502E-06
         5           1      0.11124736E-12     0.40425996E-13
         5           2      0.10136271E-12     0.37386760E-13
================================================================================
------------------------------- NGWF line search -------------------------------
RMS gradient                =       0.00128910872746
Trial step length           =               0.122474
Gradient along search dir.  =         -2.62918903211
Functional at step 0        =    -225.40950517469102
Functional at step 1        =    -225.71210173656522
Functional predicted        =    -226.74488324960578
Selected quadratic step     =               1.015810
Conjugate gradients coeff.  =               0.000000
--------------------------- NGWF line search finished --------------------------
                                               
Writing NGWFs to file "Fe_H2O_6_LowSpin_NGWFSP.tightbox_ngwfs".... done

>>> Optimising kernel for current NGWFs:
   Initial electron number for spin 1:      31.26690488
   Initial electron number for spin 2:      30.26806126
     Final electron number for spin 1:      31.00000000
     Final electron number for spin 2:      30.00000000

=================== Penalty functional idempotency correction ==================
 RMS occupancy error at iteration   1:  0.007322 (step -0.4794 Ne1=     31.0000)
                                                               Ne2=     30.0000
 RMS occupancy error at iteration   2:  0.000132 (step -0.4999 Ne1=     31.0000)
                                                               Ne2=     30.0000
            Final RMS occupancy error   :  0.000000 (Ne1=     31.0000)
                                                     Ne2=     30.0000
            Final occupancy bounds spin 1: [  0.000,  1.000]
            Final occupancy bounds spin 2: [  0.000,  1.000]
================================================================================

................................................................................
<<<<<<<<<<<<<< LNV (Original version) density kernel optimisation >>>>>>>>>>>>>>
~~~~~~~~~~~~~~~~~~~~~~~~~~~~~~~~~~~~~~~~~~~~~~~~~~~~~~~~~~~~~~~~~~~~~~~~~~~~~~~~
   iter  |      energy (Eh)       | rms gradient |  commutator  |   dE (Eh)

################################################################################
DFT+U information on atom      1 of Hubbard species Fe  
################################################################################
Occupancy matrix of Hubbard site      1 and spin      1 is 
  m_l =   -2          -1           0           1           2
  0.72978739  0.12392622  0.09471114  0.19205365 -0.04983412
  0.12388020  0.56293228 -0.08166738  0.13470639  0.08659678
  0.09480061 -0.08171181  0.94750535 -0.05554300  0.02460220
  0.19212000  0.13478584 -0.05547085  0.68334832 -0.00137402
 -0.04977795  0.08657440  0.02456635 -0.00140277  0.95834165
################################################################################
Occupancy matrix of Hubbard site      1 and spin      2 is 
  m_l =   -2          -1           0           1           2
  0.72589774  0.10983189  0.13311482  0.17337009 -0.05363588
  0.10978972  0.51234503  0.05802414  0.06910611  0.07314234
  0.13322556  0.05809412  0.56488390  0.12240091  0.06157178
  0.17343772  0.06917450  0.12235671  0.60205821 -0.01848816
 -0.05358046  0.07311445  0.06152107 -0.01852100  0.95429039
################################################################################
Total occupancy of Hubbard site      1 is         7.24139025 e
Local magnetic moment of Hubbard site      1 is   0.52243970 mu_B
DFT+U energy of Hubbard site      1 is            0.09826523 Ha
################################################################################

      ideal mu1:      -1.097119789389
      ideal mu2:      -1.107328246072
             Q0:        -226.751941898910
             G0:      -0.980393549002
   RMS gradient:       0.028577164862

################################################################################
DFT+U information on atom      1 of Hubbard species Fe  
################################################################################
Occupancy matrix of Hubbard site      1 and spin      1 is 
  m_l =   -2          -1           0           1           2
  0.66736628  0.15038590  0.11840516  0.23777346 -0.05685404
  0.15033256  0.48083117 -0.09625270  0.16836450  0.10474996
  0.11851796 -0.09630273  0.93908753 -0.07097356  0.02804471
  0.23785585  0.16846394 -0.07088218  0.60902485 -0.00782946
 -0.05678091  0.10472499  0.02800164 -0.00786869  0.95375714
################################################################################
Occupancy matrix of Hubbard site      1 and spin      2 is 
  m_l =   -2          -1           0           1           2
  0.65932331  0.13103877  0.17110437  0.21361577 -0.06252018
  0.13098995  0.41044803  0.08416826  0.08557679  0.08746613
  0.17124833  0.08426538  0.46205253  0.14712428  0.07551686
  0.21369925  0.08566302  0.14707296  0.50975492 -0.02950424
 -0.06244809  0.08743368  0.07545549 -0.02954905  0.94772646
################################################################################
Total occupancy of Hubbard site      1 is         6.63937222 e
Local magnetic moment of Hubbard site      1 is   0.66076173 mu_B
DFT+U energy of Hubbard site      1 is            0.09049415 Ha
################################################################################

     Trial step:       0.500000000000
             Q1:        -226.866130782057
 Quadratic coef:       0.376007891354
 Linear coef   :      -0.490196774501
           Qmin:        -226.911707746421
Quadratic minimum step length (  0.325921866118) accepted
    Initial Ne1:      31.00000075
    Initial Ne2:      30.00000054
      Final Ne1:      31.00000000
      Final Ne2:      30.00000000

=================== Penalty functional idempotency correction ==================
 RMS occupancy error at iteration   1:  0.003967 (step -0.4859 Ne1=     31.0000)
                                                               Ne2=     30.0000
 RMS occupancy error at iteration   2:  0.000031 (step -0.5000 Ne1=     31.0000)
                                                               Ne2=     30.0000
            Final RMS occupancy error   :  0.000000 (Ne1=     31.0000)
                                                     Ne2=     30.0000
            Final occupancy bounds spin 1: [  0.000,  1.000]
            Final occupancy bounds spin 2: [  0.000,  1.000]
================================================================================

    1        -2.267519418989E+02     2.8577E-02     1.6262E-02

################################################################################
DFT+U information on atom      1 of Hubbard species Fe  
################################################################################
Occupancy matrix of Hubbard site      1 and spin      1 is 
  m_l =   -2          -1           0           1           2
  0.68779410  0.14180137  0.11063943  0.22293143 -0.05471196
  0.14175032  0.50715472 -0.09160253  0.15735564  0.09887937
  0.11074457 -0.09165085  0.94182739 -0.06587756  0.02699761
  0.22300861  0.15744854 -0.06579251  0.63328273 -0.00552310
 -0.05464447  0.09885517  0.02695686 -0.00555881  0.95525152
################################################################################
Occupancy matrix of Hubbard site      1 and spin      2 is 
  m_l =   -2          -1           0           1           2
  0.68113613  0.12429937  0.15857418  0.20061952 -0.05975866
  0.12425261  0.44337725  0.07520019  0.08028055  0.08289938
  0.15870715  0.07528810  0.49575841  0.13910090  0.07099639
  0.20069787  0.08036095  0.13905187  0.53983449 -0.02568784
 -0.05969209  0.08286835  0.07093842 -0.02572863  0.94989387
################################################################################
Total occupancy of Hubbard site      1 is         6.83531062 e
Local magnetic moment of Hubbard site      1 is   0.61531031 mu_B
DFT+U energy of Hubbard site      1 is            0.09417409 Ha
################################################################################

      ideal mu1:      -1.110925001521
      ideal mu2:      -1.118567706767
             Q0:        -226.914435638228
             G0:      -0.589225397146
   RMS gradient:       0.021832183502

################################################################################
DFT+U information on atom      1 of Hubbard species Fe  
################################################################################
Occupancy matrix of Hubbard site      1 and spin      1 is 
  m_l =   -2          -1           0           1           2
  0.65672216  0.15781112  0.12572867  0.24721085 -0.05536041
  0.15775808  0.47605021 -0.09670547  0.17811946  0.10953209
  0.12584878 -0.09675330  0.94143590 -0.07453617  0.02750360
  0.24729660  0.17822513 -0.07443988  0.59794273 -0.01501769
 -0.05527975  0.10950879  0.02745944 -0.01506191  0.96035534
################################################################################
Occupancy matrix of Hubbard site      1 and spin      2 is 
  m_l =   -2          -1           0           1           2
  0.64516801  0.13639875  0.18484429  0.22144529 -0.06220091
  0.13635025  0.39538389  0.09808186  0.08940854  0.09085623
  0.18500047  0.09819217  0.43964243  0.15504020  0.07921675
  0.22153201  0.08950055  0.15498729  0.49167737 -0.03878140
 -0.06212129  0.09082418  0.07915385 -0.03883236  0.95329254
################################################################################
Total occupancy of Hubbard site      1 is         6.55767058 e
Local magnetic moment of Hubbard site      1 is   0.70734210 mu_B
DFT+U energy of Hubbard site      1 is            0.08536003 Ha
################################################################################

     Trial step:       0.403684199665
             Q1:        -226.979627856288
 Quadratic coef:       0.172668764809
 Linear coef   :      -0.237860982869
           Qmin:        -226.996352375216
Quadratic minimum step length (  0.278048900759) accepted
    Initial Ne1:      31.00000026
    Initial Ne2:      30.00000013
      Final Ne1:      31.00000000
      Final Ne2:      30.00000000

=================== Penalty functional idempotency correction ==================
 RMS occupancy error at iteration   1:  0.006354 (step -0.4780 Ne1=     31.0000)
                                                               Ne2=     30.0000
 RMS occupancy error at iteration   2:  0.000101 (step -0.5003 Ne1=     31.0000)
                                                               Ne2=     30.0000
            Final RMS occupancy error   :  0.000000 (Ne1=     31.0000)
                                                     Ne2=     30.0000
            Final occupancy bounds spin 1: [  0.000,  1.000]
            Final occupancy bounds spin 2: [  0.000,  1.000]
================================================================================

    2        -2.269144356382E+02     2.1832E-02     1.2402E-02    -1.6249E-01

################################################################################
DFT+U information on atom      1 of Hubbard species Fe  
################################################################################
Occupancy matrix of Hubbard site      1 and spin      1 is 
  m_l =   -2          -1           0           1           2
  0.66549922  0.15333866  0.12144928  0.24056373 -0.05539631
  0.15328603  0.48416723 -0.09545882  0.17228352  0.10659947
  0.12156514 -0.09550698  0.94165354 -0.07209490  0.02746381
  0.24064712  0.17238557 -0.07200178  0.60781492 -0.01205938
 -0.05531951  0.10657581  0.02742055 -0.01210109  0.95893182
################################################################################
Occupancy matrix of Hubbard site      1 and spin      2 is 
  m_l =   -2          -1           0           1           2
  0.65536070  0.13317131  0.17727246  0.21584549 -0.06170859
  0.13312316  0.40847489  0.09103066  0.08700456  0.08875031
  0.17742192  0.09113418  0.45572635  0.15047274  0.07692776
  0.21592993  0.08709330  0.15042095  0.50514598 -0.03476424
 -0.06163277  0.08871847  0.07686616 -0.03481218  0.95235096
################################################################################
Total occupancy of Hubbard site      1 is         6.63512560 e
Local magnetic moment of Hubbard site      1 is   0.68100785 mu_B
DFT+U energy of Hubbard site      1 is            0.08810746 Ha
################################################################################

      ideal mu1:      -1.103899258905
      ideal mu2:      -1.110793242206
             Q0:        -227.004428584349
             G0:      -0.170494941763
   RMS gradient:       0.011247450697

################################################################################
DFT+U information on atom      1 of Hubbard species Fe  
################################################################################
Occupancy matrix of Hubbard site      1 and spin      1 is 
  m_l =   -2          -1           0           1           2
  0.66105030  0.15870885  0.12612870  0.24326312 -0.05155169
  0.15865787  0.49038009 -0.09356626  0.17826350  0.10832148
  0.12624934 -0.09361095  0.94381385 -0.07411476  0.02576298
  0.24334778  0.17836961 -0.07401867  0.60375663 -0.02010281
 -0.05146822  0.10829973  0.02571980 -0.02014908  0.96519525
################################################################################
Occupancy matrix of Hubbard site      1 and spin      2 is 
  m_l =   -2          -1           0           1           2
  0.64701944  0.13687453  0.18779569  0.21757227 -0.05899217
  0.13682795  0.40518394  0.10363689  0.08884490  0.08951724
  0.18795462  0.10375191  0.44399370  0.15541544  0.07848826
  0.21765792  0.08893760  0.15536337  0.49550657 -0.04462284
 -0.05890952  0.08948613  0.07842677 -0.04467652  0.95785575
################################################################################
Total occupancy of Hubbard site      1 is         6.61375553 e
Local magnetic moment of Hubbard site      1 is   0.71463672 mu_B
DFT+U energy of Hubbard site      1 is            0.08490638 Ha
################################################################################

     Trial step:       0.335028279360
             Q1:        -227.040332977658
 Quadratic coef:       0.021216233670
 Linear coef   :      -0.057120626979
           Qmin:        -227.042875158765
Quadratic minimum step length (  0.450999589987) accepted
    Initial Ne1:      30.99999188
    Initial Ne2:      29.99999262
      Final Ne1:      31.00000000
      Final Ne2:      30.00000000

=================== Penalty functional idempotency correction ==================
 RMS occupancy error at iteration   1:  0.005296 (step -0.4820 Ne1=     31.0000)
                                                               Ne2=     30.0000
 RMS occupancy error at iteration   2:  0.000070 (step -0.5002 Ne1=     31.0000)
                                                               Ne2=     30.0000
            Final RMS occupancy error   :  0.000000 (Ne1=     31.0000)
                                                     Ne2=     30.0000
            Final occupancy bounds spin 1: [  0.000,  1.000]
            Final occupancy bounds spin 2: [  0.000,  1.000]
================================================================================

    3        -2.270044285843E+02     1.1247E-02     6.3889E-03    -8.9993E-02

################################################################################
DFT+U information on atom      1 of Hubbard species Fe  
################################################################################
Occupancy matrix of Hubbard site      1 and spin      1 is 
  m_l =   -2          -1           0           1           2
  0.65963679  0.16031402  0.12755730  0.24385907 -0.05016255
  0.16026367  0.49283397 -0.09283298  0.18006382  0.10875917
  0.12767941 -0.09287645  0.94438722 -0.07475025  0.02513511
  0.24394405  0.18017116 -0.07465324  0.60254446 -0.02281843
 -0.05007692  0.10873809  0.02509202 -0.02286620  0.96700259
################################################################################
Occupancy matrix of Hubbard site      1 and spin      2 is 
  m_l =   -2          -1           0           1           2
  0.64429396  0.13789819  0.19120496  0.21783965 -0.05798430
  0.13785220  0.40442623  0.10797873  0.08927783  0.08963238
  0.19136695  0.10809766  0.44008663  0.15699606  0.07893787
  0.21792560  0.08937175  0.15694389  0.49251179 -0.04794478
 -0.05789943  0.08960155  0.07887649 -0.04800036  0.95943537
################################################################################
Total occupancy of Hubbard site      1 is         6.60715903 e
Local magnetic moment of Hubbard site      1 is   0.72565106 mu_B
DFT+U energy of Hubbard site      1 is            0.08393050 Ha
################################################################################

      ideal mu1:      -1.125495604808
      ideal mu2:      -1.132437922729
             Q0:        -227.046335755990
             G0:      -0.064869817185
   RMS gradient:       0.006992674574

################################################################################
DFT+U information on atom      1 of Hubbard species Fe  
################################################################################
[...]
**********************************************************
TOTAL:              0.01632736  -0.00281612   0.00018754
 
********************* Unconstrained **********************
************ NGWF non self-consistent forces *************
*                                                        *
* Element  Atom         Cartesian components (Eh/a)      *
* ------------------------------------------------------ *
*                       x            y            z      *
*                                                        *
*    Fe      1      0.00003725   0.00002630   0.00000121 *
*    O       2     -0.00002618   0.00002426   0.00020624 *
*    O       3      0.00002407  -0.00002687  -0.00021600 *
*    O       4     -0.00017487   0.00038143  -0.00003260 *
*    O       5      0.00016935  -0.00038228   0.00005017 *
*    O       6      0.00044915  -0.00041195  -0.00065115 *
*    O       7     -0.00044674   0.00042041   0.00065169 *
*    H       8      0.00001943  -0.00015392  -0.00004270 *
*    H       9      0.00007032  -0.00008792   0.00015566 *
*    H      10      0.00023711  -0.00007695   0.00005205 *
*    H      11      0.00017206   0.00007968   0.00004927 *
*    H      12     -0.00000434  -0.00008946  -0.00023584 *
*    H      13     -0.00008646  -0.00004879   0.00009551 *
*    H      14     -0.00007316   0.00008600  -0.00015387 *
*    H      15      0.00008420   0.00005004  -0.00009501 *
*    H      16      0.00000258   0.00008938   0.00023485 *
*    H      17     -0.00002060   0.00015594   0.00004149 *
*    H      18     -0.00017283  -0.00008205  -0.00004586 *
*    H      19     -0.00023737   0.00007524  -0.00005323 *
*                                                        *
**********************************************************
TOTAL:              0.00002297   0.00002849   0.00001189
 
********************* Unconstrained **********************
********************** NLCC forces ***********************
*                                                        *
* Element  Atom         Cartesian components (Eh/a)      *
* ------------------------------------------------------ *
*                       x            y            z      *
*                                                        *
*    Fe      1     -0.00000000   0.00000000   0.00000000 *
*    O       2     -0.00000186  -0.00000059  -0.00000162 *
*    O       3      0.00000184   0.00000053   0.00000165 *
*    O       4      0.00000031   0.00000271  -0.00000038 *
*    O       5     -0.00000036  -0.00000266   0.00000042 *
*    O       6     -0.00000230   0.00000127   0.00000065 *
*    O       7      0.00000222  -0.00000127  -0.00000075 *
*    H       8      0.00000000   0.00000000   0.00000000 *
*    H       9      0.00000000   0.00000000   0.00000000 *
*    H      10      0.00000000   0.00000000   0.00000000 *
*    H      11      0.00000000   0.00000000   0.00000000 *
*    H      12      0.00000000   0.00000000   0.00000000 *
*    H      13      0.00000000   0.00000000   0.00000000 *
*    H      14      0.00000000   0.00000000   0.00000000 *
*    H      15      0.00000000   0.00000000   0.00000000 *
*    H      16      0.00000000   0.00000000   0.00000000 *
*    H      17      0.00000000   0.00000000   0.00000000 *
*    H      18      0.00000000   0.00000000   0.00000000 *
*    H      19      0.00000000   0.00000000   0.00000000 *
*                                                        *
**********************************************************
TOTAL:             -0.00000015  -0.00000001  -0.00000002
 
********************* Unconstrained **********************
********************** DFT+U forces **********************
*                                                        *
* Element  Atom         Cartesian components (Eh/a)      *
* ------------------------------------------------------ *
*                       x            y            z      *
*                                                        *
*    Fe      1      0.00000322   0.00000115  -0.00000060 *
*    O       2      0.00000000   0.00000000   0.00000000 *
*    O       3      0.00000000   0.00000000   0.00000000 *
*    O       4      0.00000000   0.00000000   0.00000000 *
*    O       5      0.00000000   0.00000000   0.00000000 *
*    O       6      0.00000000   0.00000000   0.00000000 *
*    O       7      0.00000000   0.00000000   0.00000000 *
*    H       8      0.00000000   0.00000000   0.00000000 *
*    H       9      0.00000000   0.00000000   0.00000000 *
*    H      10      0.00000000   0.00000000   0.00000000 *
*    H      11      0.00000000   0.00000000   0.00000000 *
*    H      12      0.00000000   0.00000000   0.00000000 *
*    H      13      0.00000000   0.00000000   0.00000000 *
*    H      14      0.00000000   0.00000000   0.00000000 *
*    H      15      0.00000000   0.00000000   0.00000000 *
*    H      16      0.00000000   0.00000000   0.00000000 *
*    H      17      0.00000000   0.00000000   0.00000000 *
*    H      18      0.00000000   0.00000000   0.00000000 *
*    H      19      0.00000000   0.00000000   0.00000000 *
*                                                        *
**********************************************************
TOTAL:              0.00000322   0.00000115  -0.00000060
 
********************* Unconstrained **********************
****** Correction to ensure the total force is zero ******
*                                                        *
* Element  Atom         Cartesian components (Eh/a)      *
* ------------------------------------------------------ *
*                       x            y            z      *
*                                                        *
*    Fe      1      0.00000164   0.00000078   0.00000016 *
*    O       2      0.00000164   0.00000078   0.00000016 *
*    O       3      0.00000164   0.00000078   0.00000016 *
*    O       4      0.00000164   0.00000078   0.00000016 *
*    O       5      0.00000164   0.00000078   0.00000016 *
*    O       6      0.00000164   0.00000078   0.00000016 *
*    O       7      0.00000164   0.00000078   0.00000016 *
*    H       8      0.00000164   0.00000078   0.00000016 *
*    H       9      0.00000164   0.00000078   0.00000016 *
*    H      10      0.00000164   0.00000078   0.00000016 *
*    H      11      0.00000164   0.00000078   0.00000016 *
*    H      12      0.00000164   0.00000078   0.00000016 *
*    H      13      0.00000164   0.00000078   0.00000016 *
*    H      14      0.00000164   0.00000078   0.00000016 *
*    H      15      0.00000164   0.00000078   0.00000016 *
*    H      16      0.00000164   0.00000078   0.00000016 *
*    H      17      0.00000164   0.00000078   0.00000016 *
*    H      18      0.00000164   0.00000078   0.00000016 *
*    H      19      0.00000164   0.00000078   0.00000016 *
*                                                        *
**********************************************************
TOTAL:              0.00003120   0.00001485   0.00000302

********************* Unconstrained **********************
************************* Forces *************************
*                                                        *
* Element  Atom         Cartesian components (Eh/a)      *
* ------------------------------------------------------ *
*                       x            y            z      *
*                                                        *
*    Fe      1      0.00001143   0.00015640  -0.00004931 *
*    O       2      0.00226240  -0.00005658   0.00398258 *
*    O       3     -0.00218760  -0.00009173  -0.00403234 *
*    O       4     -0.00253436  -0.00187234   0.00231261 *
*    O       5      0.00239853   0.00169762  -0.00219264 *
*    O       6     -0.00003072  -0.00146191  -0.00275642 *
*    O       7     -0.00011415   0.00141435   0.00271059 *
*    H       8      0.00057829   0.00898451   0.00078684 *
*    H       9     -0.00434766   0.00331953  -0.00707236 *
*    H      10     -0.00772383   0.00496237   0.00050529 *
*    H      11     -0.00791166  -0.00323414  -0.00301802 *
*    H      12     -0.00253541   0.00503125   0.00721359 *
*    H      13      0.00544819   0.00457383  -0.00479131 *
*    H      14      0.00436856  -0.00327239   0.00702563 *
*    H      15     -0.00540570  -0.00453676   0.00486245 *
*    H      16      0.00253086  -0.00495561  -0.00724597 *
*    H      17     -0.00050983  -0.00896868  -0.00073464 *
*    H      18      0.00797057   0.00322442   0.00297621 *
*    H      19      0.00773209  -0.00491415  -0.00048277 *
*                                                        *
**********************************************************
* TOTAL:           -0.00000000   0.00000000  -0.00000000 *
**********************************************************
 
 
***********************************************************
********** Summary of Forces (values in Eh/a) *************
*                                                         *
* ---------------------- Minimum ------------------------ *
* Atom:         1, |F|min =    0.00016439                 *
* Components:     Fx|min       Fy|min       Fz|min        *
*               0.00001143   0.00015640  -0.00004931      *
*                                                         *
* ---------------------- Maximum ------------------------ *
* Atom:        10, |F|max =    0.00919446                 *
* Components:     Fx|max       Fy|max       Fz|max        *
*              -0.00772383   0.00496237   0.00050529      *
*                                                         *
* ---------------- Root Mean Square Force --------------- *
*                  |F|rms =    0.00746849                 *
* Components:     Fx|rms       Fy|rms       Fz|rms        *
*               0.00446023   0.00431919   0.00415081      *
***********************************************************
 

------------------------------ TIMING INFORMATION ------------------------------
AVERAGE TIME:    1466.370s on      6 proc(s)                                    
TOTAL TIME:      1466.370s on      6 proc(s)                                    
==================== AVERAGE TIMINGS FROM ALL PROCS (CUMULATIVE) =====================
|| TAG                                         #calls     cpu time   %total  Gflops ||
|| hash_table_free                            :    29        0.00s   0.000%  ------ ||
|| hubbard_species_proj                       :     1        0.00s   0.000%  ------ ||
|| hubbard_projector_character                :     1        0.00s   0.000%  ------ ||
|| sparse_spam3toblacs_real_fast_imbal        :     6        0.00s   0.000%  ------ ||
|| linalg_invert_sym_matrix                   :     4        0.00s   0.000%  ------ || (1 procs only)
|| hubbard_ngwf_on_grid                       :     1        0.00s   0.000%  ------ ||
|| hubbard_ngwf_select                        :     1        0.00s   0.000%  ------ ||
|| sparse_spam3toblacs_real_fast_B2           :    36        0.00s   0.000%  ------ ||
|| ewald_calculate_forces_realspace           :     1        0.00s   0.000%  ------ ||
|| hubbard_tensorial_correction               :     2        0.00s   0.000%  ------ ||
|| sparse_blacstospam3_real_fast_imbal        :    24        0.00s   0.000%  ------ ||
|| density_fftbox_interp_mult_imbal           :  3978        0.00s   0.000%  ------ ||
|| sparse_spam3toblacs_real_fast_B1           :    36        0.00s   0.000%  ------ ||
|| sparse_spam3toblacs_real_fast              :     6        0.00s   0.000%  ------ ||
|| onetep.F90 final imbalance                 :     1        0.00s   0.000%  ------ ||
|| linalg_dsyev_lt                            :   149        0.01s   0.001%  ------ || (1 procs only)
|| onetep.F90 main loop imbalance             :     1        0.00s   0.000%  ------ ||
|| ewald_calculate_energy                     :     1        0.00s   0.000%  ------ ||
|| ewald_calculate_forces_recipspace          :     1        0.00s   0.000%  ------ ||
|| sw_bessel_init_cpu                         :     1        0.01s   0.001%  ------ || (1 procs only)
|| ewald_calculate_forces                     :     1        0.00s   0.000%  ------ ||
|| sparse_set_to_garbage                      :   630        0.00s   0.000%  ------ ||
|| sparse_blacstospam3_real_fast              :    24        0.00s   0.000%  ------ ||
|| paw_dij_hartree                            :   166        0.01s   0.001%  ------ ||
|| sparse_init                                :     1        0.01s   0.001%  ------ ||
|| hubbard_projection_mtx                     :    31        0.01s   0.001%  ------ ||
|| linalg_dgemv                               :   104        0.02s   0.002%  ------ ||
|| basis_extract_function_from_box            :   490        0.03s   0.002%  ------ ||
|| hubbard_ham_matrix                         :    77        0.03s   0.002%  ------ ||
|| restart_kernel_write                       :    16        0.03s   0.002%  ------ ||
|| hubbard_projector_ham                      :    76        0.05s   0.003%  ------ ||
|| augmentation_density_forces                :     1        0.05s   0.003%  ------ ||
|| sparse_embed_array_hotelling_invert        :    29        0.05s   0.004%  ------ ||
|| sw_init                                    :   311        0.06s   0.004%  ------ ||
|| pseudo_make_structure_factor               :     1        0.07s   0.005%  ------ ||
|| palser_mano_kernel_optimise_spam3_embed    :     2        0.08s   0.005%  ------ ||
|| dense_eigensolve                           :     2        0.08s   0.006%  ------ ||
|| paw_tcore_density                          :     1        0.10s   0.007%  ------ ||
|| paw_tcore_hartree_on_grid                  :     1        0.20s   0.014%  ------ ||
|| hubbard_energy_total                       :   149        0.21s   0.014%  ------ ||
|| hubbard_calculate_forces                   :     1        0.21s   0.015%  ------ ||
|| paw_sphere_density_on_grid                 :     1        0.24s   0.016%  ------ ||
|| lnv_gradient_norm                          :    75        0.24s   0.017%  ------ ||
|| kernel_purify                              :   236        0.31s   0.021%  ------ ||
|| paw_tcore_hartree_calc_forces              :     1        0.32s   0.022%  ------ ||
|| nonsc_forces_ngwfs_calc                    :     1        0.36s   0.025%  ------ ||
|| ngwfs_initialise_from_radial               :     4        0.37s   0.025%  ------ ||
|| kernel_fix                                 :    75        0.42s   0.029%  ------ ||
|| sparse_trace                               :  7029        0.56s   0.038%  ------ ||
|| integrals_grad_spam3                       :     4        0.57s   0.039%  ------ ||
|| function_ops_brappd_ketppd_spam3           :   120        0.95s   0.065%  ------ ||
|| paw_dataset_init                           :     3        1.26s   0.086%  ------ ||
|| sparse_product                             : 11450        1.45s   0.099%  ------ ||
|| paw_species_calc_proj_prec_mat             :     1        1.56s   0.106%  ------ ||
|| ngwf_gradient_coeffs                       :    15        1.70s   0.116%  ------ ||
|| hubbard_projector_update                   :     1        1.78s   0.121%  ------ ||
|| restart_ngwfs_tightbox_output              :    14        1.95s   0.133%  ------ ||
|| projectors_func_grad_ovlp_box_spam3        :     6        2.27s   0.155%  ------ ||
|| basis_copy_function_to_box                 :  4771        2.30s   0.157%  ------ ||
|| aug_nl_calculate_forces                    :     1        2.39s   0.163%  ------ ||
|| paw_nlcc_calculate_forces                  :     1        2.45s   0.167%  ------ ||
|| fourier_apply_box_pair                     :   761        2.46s   0.168% 136.570 ||
|| eigenstates_calculate                      :     1        3.36s   0.229%  ------ ||
|| basis_dot_function_with_box                : 147.6k       3.41s   0.232%  ------ ||
|| cell_grid_extract_box_real                 :  4012        3.76s   0.256%  ------ ||
|| basis_add_function_to_box                  : 172.9k       4.47s   0.305%  ------ ||
|| integrals_kinetic_spam3                    :    58        5.55s   0.379%  ------ ||
|| energy_and_force_init_cell                 :     1        6.13s   0.418%  ------ ||
|| density_batch_row_sums                     :   306        6.16s   0.420%  ------ ||
|| augmentation_screen_dij_spam3              :   157        6.33s   0.432%  ------ ||
|| density_fftbox_deposit_to_cell             :  3978        7.73s   0.527%  ------ ||
|| cell_grid_deposit_box_real                 :  5542        8.49s   0.579%  ------ ||
|| density_init_guess_real                    :     2       11.72s   0.799%  ------ ||
|| forces_calculate                           :     1       12.65s   0.863%  ------ ||
|| aug_nonlocal_mat_spam3_embed_array         :   150       16.15s   1.101%  ------ ||
|| paw_dij_xc                                 :   166       17.63s   1.202%  ------ ||
|| fourier_filter                             :   992       21.14s   1.442%  ------ ||
|| aug_density_on_grid_spam3                  :   153       25.33s   1.727%  ------ ||
|| integrals_locpot_mat_els_batch             :   166       28.79s   1.963%  ------ ||
|| hamiltonian_energy_components              :     3       28.90s   1.971%  ------ ||
|| fourier_filter_cell                        :   196       29.63s   2.021%  22.690 ||
|| projectors_init_fftbox_recip               :   219       31.43s   2.144%  ------ ||
|| fourier_interpolate                        :   992       33.20s   2.264%  ------ ||
|| projectors_func_ovlp_box_spam3             :   122       39.10s   2.667%  ------ ||
|| hartree_on_grid_single                     :   152       40.28s   2.747%  ------ ||
|| fourier_interpolate_cell                   :   306       45.58s   3.108%  23.033 ||
|| properties_calculate                       :     1       71.64s   4.885%  ------ ||
|| fourier_interpolate_product                :  2499       71.87s   4.901%  ------ ||
|| density_fftbox_interpolate_multiply        :  3978       78.57s   5.358%  ------ ||
|| projectors_grad_precond_batch              :    30       80.58s   5.496%  ------ ||
|| fourier_apply_box                          : 18525       90.78s   6.191% 246.779 ||
|| potential_apply_to_ngwf_batch              :   166      111.11s   7.577%  ------ ||
|| integrals_locpot_dbl_grid                  :   166      139.96s   9.545%  ------ ||
|| projectors_gradient_batch                  :    60      142.85s   9.742%  ------ ||
|| fourier_apply_cell_forward                 :  1369      159.57s  10.882%  26.498 ||
|| fourier_apply_cell_backward                :  1369      172.11s  11.737%  24.567 ||
|| density_batch_interp_deposit               :   306      178.43s  12.168%  ------ ||
|| density_on_dbl_grid                        :   306      189.11s  12.897%  ------ ||
|| ngwf_gradient_build_batch                  :    30      293.21s  19.995%  ------ ||
|| ngwf_gradient_batch                        :    30      334.66s  22.822%  ------ ||
|| ngwf_gradient_lnv                          :    15      342.86s  23.382%  ------ ||
|| xc_energy_potential                        :   152      361.13s  24.628%  ------ ||
|| hamiltonian_lhxc_calculate                 :   147      741.82s  50.589%  ------ ||
|| lnv_denskernel_optimise_cg                 :    15      830.78s  56.656%  ------ ||
|| ngwf_cg_optimise                           :     1     1351.74s  92.183%  ------ ||
|| energy_and_forces                          :     1     1459.83s  99.554%  ------ ||
|| total_time                                 :     1     1466.37s 100.000%  ------ ||
======================================================================================
Overhead of generating timer report: 
- 0 ms averaging over threads,
- 0 ms ensuring consistency across MPI ranks,
- 0 ms printing in order.

Job completed: 28-06-2025 12:35 (+0100)

onetep_launcher: ONETEP seems to have finished correctly (zero exit code).
                 Brought to you by PID 138733 on nid002980.
