==================================================================================
It's Sat 28 Jun 2025 12:11:33 PM BST.
*** Starting onetep_launcher (node nid002974, PIDs 220974 220975 220976 220977 220978 220979)...
    - ONETEP arguments: Fe_H2O_6_HighSpin.dat
    - Current directory: /mnt/lustre/a2fs-work3/work/e89/e89/phsmea/onetep_ali/Fe_H2O_6/HS/nsp
    - Launcher executable directory: /mnt/lustre/a2fs-work3/work/e89/e89/phsmea/onetep_ali
    - (-e) ONETEP executable specified through command-line: /work/e89/e89/phsmea/onetep.archer2_2024_cray_2
      ... trying /work/e89/e89/phsmea/onetep.archer2_2024_cray_2
          -> looks OK
*** Setting up environment...
    - (-s) Process stack size: unlimited
    - (-t) OMP_NUM_THREADS: 8
    - (-o) OMP_STACKSIZE: 64M
    - (-c) Maximum core file size: 2048000
    - (-d) decfort_dump_flag: n
    - (-m) I_MPI_OFA_TRANSLATION_CACHE: 0
    - (-m) I_MPI_DAPL_TRANSLATION_CACHE: 0
    - (-m) I_MPI_DAPL_UD_TRANSLATION_CACHE: 0
*** Starting ONETEP...
    - /work/e89/e89/phsmea/onetep.archer2_2024_cray_2 Fe_H2O_6_HighSpin.dat
=================================================================================
_________________________________________________________________________________
 +---------------------------------------------------------------+
 |                                                               |
 |        ####### #     # ####### ####### ####### ######         |
 |        #     # ##    # #          #    #       #     #        |
 |        #     # # #   # #          #    #       #     #        |
 |        #     # #  #  # #####      #    #####   ######         |
 |        #     # #   # # #          #    #       #              |
 |        #     # #    ## #          #    #       #              |
 |        ####### #     # #######    #    ####### #              |
 |                                                               |
 |        Linear-Scaling Ab Initio Total Energy Program          |
 |                                                               |
 |          Release for academic collaborators of ODG            |
 |                                             Version 7.3.0     |
 | Remote: git@github.com:Miesaz/onetep_mea.git                  |
 | Local branch: master                                          |
 | Commit ID: 4af45e89288c8df5499704252eec3e032ee3d0c8           |
 | Date: Tue Aug 6 11:28:44 2024 +0100                           |
 | Locally modified files:                                       |
 |   src/hubbard_build_mod.F90                                   |
 |   src/services_mod.F90                                        |
 |                                                               |
 +---------------------------------------------------------------+
 |                                                               |
 |  Authors:                                                     |
 |  Jacek Dziedzic, Peter D. Haynes, Nicholas D. M. Hine,        |
 |  Arash A. Mostofi, Mike C. Payne and Chris-Kriton Skylaris    |
 |                                                               |
 |  Contributors:                                                |
 |  J. Aarons, L. Andrinopoulos, P. W. Avraam, R. A. Bell,       |
 |  A. Bhandari, G. A. Bramley, R. J. Charlton, S. J. Clark,     |
 |  R. J. Clements, G. C. Constantinescu, F. Corsetti,           |
 |  N. Corsini, O. Dieguez, S. M. M. Dubois, K. K. B. Duff,      |
 |  J. M. Escartin, M. Escobar Azor, A. Greco,                   |
 |  H. Helal, Q. O. Hill, L. P. Lee, J.-H. Li,                   |
 |  T. Li, E. B. Linscott, G. Moynihan, D. D. O`Regan,           |
 |  O. K. Okan, E. Parkinson, M. J. S. Phipps,                   |
 |  C. J. Pickard, J. C. A. Prentice, M. I. J. Probert,          |
 |  L. E. Ratcliff, M. Robinson, A. Ruiz Serrano,                |
 |  M. dos Santos Dias, J. S. Spencer, E. W. Tait,               |
 |  G. Teobaldi, D. Turban, V. Vitale, K. A. Wilkinson,          |
 |  C. Weber, J. C. Womack, Chengcheng Xiao, N. Yeung,           |
 |  and T. J. Zuehlsdorff.                                       |
 |                                                               |
 |                                   Copyright (c) 2004-2025     |
 |                                                               |
 |  Please cite:                                                 |
 |  "The ONETEP linear-scaling density functional theory program"|
 |   J. Chem. Phys. 152(17) 174111 (2020)                        |
 |                                                               |
 |          in all publications arising from your use of ONETEP. |
 |                                                               |
 +---------------------------------------------------------------+
 |                                                               |
 |   ONETEP is based on developments described in the following  |
 |   publications:                                               |
 |                                                               |
 |  "Nonorthogonal generalized Wannier function pseudopotential  |
 |   plane-wave method".                                         |
 |   C.-K. Skylaris, A. A. Mostofi, P. D. Haynes, O. Dieguez,    |
 |   M. C. Payne.                                                |
 |   Phys. Rev. B 66 035119 (2002).                              |
 |                                                               |
 |  "Preconditioned iterative minimization for linear-scaling    |
 |   electronic structure calculations".                         |
 |   A. A. Mostofi, P. D. Haynes, C.-K. Skylaris, M. C. Payne.   |
 |   J. Chem. Phys. 119(17), pp.8842-8848 (2003).                |
 |                                                               |
 |  "Total-energy calculations on a real space grid with         |
 |   localized functions and a plane-wave basis".                |
 |   A. A. Mostofi, C.-K. Skylaris, P. D. Haynes, M. C. Payne.   |
 |   Comput. Phys. Commun. 147, pp.788-802 (2002).               |
 |                                                               |
 |  "Accurate kinetic energy evaluation in electronic structure  |
 |   calculations with localized functions on real space grids"  |
 |   C.-K. Skylaris, A. A. Mostofi, P. D. Haynes, C. J. Pickard, |
 |   M. C. Payne.                                                |
 |   Comput. Phys. Commun. 140, pp.315-322 (2001).               |
 |                                                               |
 |  "Accurate ionic forces and geometry optimization in linear-  |
 |   scaling density-functional theory with local orbitals"      |
 |   N. D. M. Hine, M. Robinson, P. D. Haynes, C.-K. Skylaris,   |
 |   M. C. Payne, and A. A. Mostofi.                             |
 |   Phys. Rev. B 83 195102 (2011).                              |
 |                                                               |
 +---------------------------------------------------------------+

Job started: 28-06-2025 12:11 (+0100)
 
Reading parameters from file "Fe_H2O_6_HighSpin.dat" ...... done

If your calculation crashes here, before "Checking processes and threads..."
is displayed, then your stack size is insufficient.
If so, use "ulimit -s unlimited" at runtime.
You can disable this check with "check_stack_size F".

Checking processes and threads...
   Determining the default number of threads...
      No default threads set at compilation time: defaulting to 1.
      OpenMP library call suggests 8 threads.
      Hybrid MPI-OpenMP compilation detected.
      Number of MPI processes > 1.
      OMP_NUM_THREADS environment variable present and
      its value matches the one obtained from the OpenMP library call.
      Using this value as default.
      Default threads: 8
      Default applies to threads_max and threads_num_fftboxes.
      Settings in the input file override this default.
   ... done

   Running with 6 MPI processes.
   There are 6 MPI processes running on the same node as the root process.
   Each MPI process is using: 
               1 threads for simulation cell FFTs.
               1 threads for threaded FFT box operations.
               8 threads for loops over batched FFT box operations.
               8 threads in other parallel regions.
   MPI Interface: S1 (use mpi_f08) (-DMPI -DUSE_MPI_F08).
   MPI_ASYNC_PROTECTS_NONBLOCKING: Yes. MPI_SUBARRAYS_SUPPORTED: Yes.
   FFTW Interface: OMP-capable and MODERN. (-DUSE_MODERN_FFTW specified).
   GPU Interface: None.
   GPU FFT Backend: None.
... done

Basic input checks...... done

Reading geometry and species blocks from file "Fe_H2O_6_HighSpin.dat" ...
  <species_atomic_set> block not found: NGWF initialisation set to SOLVE
    
  Number of PPD points along a3 set to 1.  This is 
  the default value, it may have been provided also in the input file.
... done


--------------------------------------------------------------------------------
---------------------------------- INPUT FILE ----------------------------------
--------------------------------------------------------------------------------

charge : 3                                                                      
cutoff_energy : 800 eV                                                          
do_properties : T                                                               
edft : F                                                                        
fine_grid_scale : 4                                                             
forces_output_detail : VERBOSE                                                  
output_detail : VERBOSE                                                         
paw : T                                                                         
pseudo_path : ../../..                                                          
spin : 5                                                                        
task : SINGLEPOINT                                                              
write_denskern : T                                                              
write_forces : T                                                                
write_tightbox_ngwfs : T                                                        
xc_functional : pbe                                                             
%BLOCK HUBBARD                                                                  
Fe 2 4.0 0 -10 0 0                                                              
%ENDBLOCK HUBBARD                                                               
%BLOCK LATTICE_CART                                                             
ang                                                                             
24.26273295       0.00000000       0.00000000                                   
0.00000000      24.37834389       0.00000000                                    
0.00000000       0.00000000      24.49207180                                    
%ENDBLOCK LATTICE_CART                                                          
%BLOCK POSITIONS_ABS                                                            
ang                                                                             
Fe    12.250834    12.347183    12.383732                                       
O    10.917918    12.146968    10.856178                                        
O    13.583304    12.546579    13.912161                                        
O    12.887136    14.120729    11.605769                                        
O    11.615952    10.572827    13.160958                                        
O    10.850840    13.339989    13.478875                                        
O    13.651816    11.355466    11.289061                                        
H    10.696459    14.301039    13.481892                                        
H    12.560868    14.548886    10.794767                                        
H    10.000000    12.470494    10.843615                                        
H    10.918955    10.000000    12.795645                                        
H    13.422087    12.984112    14.766573                                        
H    14.297832    11.752416    10.678656                                        
H    11.941917    10.145878    13.972648                                        
H    10.207412    12.944405    14.092914                                        
H    11.081036    11.713610    10.000000                                        
H    13.803190    10.393971    11.281531                                        
H    13.581663    14.695076    11.973417                                        
H    14.500246    12.220359    13.925451                                        
%ENDBLOCK POSITIONS_ABS                                                         
%BLOCK SPECIES                                                                  
Fe Fe 26 -1 10.0                                                                
H H 1 -1 10.0                                                                   
O O 8 -1 10.0                                                                   
%ENDBLOCK SPECIES                                                               
%BLOCK SPECIES_POT                                                              
Fe Fe.PBE-paw.abinit                                                            
H H.PBE-paw.abinit                                                              
O O.PBE-paw.abinit                                                              
%ENDBLOCK SPECIES_POT                                                           

--------------------------------------------------------------------------------
-------------------------------- END INPUT FILE --------------------------------
--------------------------------------------------------------------------------


 
 ESDF WARNING(1): "charge" (esdf_physical) has no units. Assume "e".
<<<<<<<<<<<<<<<<<<<<<<<<<<<<<<<<< Full system >>>>>>>>>>>>>>>>>>>>>>>>>>>>>>>>>>
<<<<<<<<<<<<<<<<<<<<<<<<<<< PAW Dataset information >>>>>>>>>>>>>>>>>>>>>>>>>>>
File: Fe.PBE-paw.abinit; rc = 2.12 bohr; shape type =  2; rshape = 1.81 bohr;
  Atomic number: 26;  ionic charge: 16.000000
    Partial Wave 1: l = 0
    Partial Wave 2: l = 0
    Partial Wave 3: l = 1
    Partial Wave 4: l = 1
    Partial Wave 5: l = 2
    Partial Wave 6: l = 2
  Core charge supplied for Nonlinear Core Corrections
File: O.PBE-paw.abinit; rc = 1.41 bohr; shape type =  2; rshape = 1.20 bohr;
  Atomic number:  8;  ionic charge:  6.000000
    Partial Wave 1: l = 0
    Partial Wave 2: l = 0
    Partial Wave 3: l = 1
    Partial Wave 4: l = 1
  Core charge supplied for Nonlinear Core Corrections
File: H.PBE-paw.abinit; rc = 0.90 bohr; shape type =  2; rshape = 0.80 bohr;
  Atomic number:  1;  ionic charge:  1.000000
    Partial Wave 1: l = 0
    Partial Wave 2: l = 0
    Partial Wave 3: l = 1
<<<<<<<<<<<<<<<<<<<<<<<<<<<<<<<<<<<<<<< >>>>>>>>>>>>>>>>>>>>>>>>>>>>>>>>>>>>>>>

-------------------------- Atom counting information ---------------------------
Symbol    Natoms    Nngwfs    Nprojs
  Fe         1        13        18
  O          6        24        48
  H         12        12        60
.......   ......    ......    ......
Totals:     19        49       126
--------------------------------------------------------------------------------

=============================== PSINC grid sizes ===============================
                      Simulation cell:   91 x  91 x  91
                              FFT-box:   91 x  91 x  91
                                  PPD:    7 x   7 x   1
Grid space d1=  0.503845280792a0 (KE cutoff=  29.92331Eh = 814.25466eV)
Grid space d2=  0.506246083152a0 (KE cutoff=  29.64017Eh = 806.54999eV)
Grid space d3=  0.508607782094a0 (KE cutoff=  29.36554Eh = 799.07702eV)
================================================================================

********************* Fourier parallelisation information **********************
       Coarse grid (whole simulation cell) dimensions:     91    91    91
          Real-space ('12') slabs/proc (min max mean):     15    16    15
         Recip-space ('23') slabs/proc (min max mean):      7     8     7
********************************************************************************

********************* Fourier parallelisation information **********************
       Double grid (whole simulation cell) dimensions:    182   182   182
          Real-space ('12') slabs/proc (min max mean):     30    31    30
         Recip-space ('23') slabs/proc (min max mean):     15    16    15
********************************************************************************

********************* Fourier parallelisation information **********************
         Fine grid (whole simulation cell) dimensions:    364   364   364
          Real-space ('12') slabs/proc (min max mean):     60    61    60
         Recip-space ('23') slabs/proc (min max mean):     30    31    30
********************************************************************************

Atom SCF Calculation for Fe : Z (AE atom) =  26 : Z (PS atom) =  16
Config String: 3s2.0 3p6.0 3d6.0 4s2.0 4p0.0
Orbitals (num,occ):  5     2.00 6.00 6.00 2.00 0.00
Orbitals   (num,l):  5        0    1    2    0    1
Real-space Grid (nr,dr,rmax): 1503    0.0066577896   10.0000000000
Spherical Bessel Basis (nsws,lmax,cutoff):   37    4  176.3967570603
Confining potential (l,width,scale):  0    3.0000000000  100.0000000000
Confining potential (l,width,scale):  1    3.0000000000  100.0000000000
Confining potential (l,width,scale):  2    3.0000000000  100.0000000000
  1       -111.4005172118  -52.5575611559   72.2164000725   -4.0901868950
  2       -116.6635475262  -20.5601904919   91.7007084249   -2.2962490369
  3       -121.6156136875  -23.2753453277   92.4544705195   -2.7706732816
  4       -123.0066153699  -21.4164712440   94.7136519632   -2.9394413820
  5       -123.8168122141  -22.6370400734   94.1384349420   -3.0798102909
  6       -123.9055073486  -21.7222843370   94.9342614757   -3.0846520419
  7       -124.0956886241  -22.4138747628   94.4617720360   -3.1224050559
  8       -124.0492758687  -21.8887017510   94.8692044073   -3.1096545890
  9       -124.1222324005  -22.2877514631   94.5777385101   -3.1254730624
 10       -124.0894611846  -22.0431086758   94.7620026738   -3.1177312036
 11       -124.1066906466  -22.1417456915   94.6895757605   -3.1215019185
 12       -124.1027421480  -22.1090398813   94.7144439268   -3.1205307857
 13       -124.1039552528  -22.1131641559   94.7116547863   -3.1207645739
 14       -124.1041718268  -22.1127261003   94.7121170471   -3.1207931979
 15       -124.1043563153  -22.1126782042   94.7122440208   -3.1208211382
 16       -124.1044853288  -22.1126702816   94.7123114748   -3.1208409484
 17       -124.1045734258  -22.1126674103   94.7123551926   -3.1208545095
 18       -124.1046334193  -22.1126657134   94.7123845864   -3.1208637603
 19       -124.1046742816  -22.1126645462   94.7124045128   -3.1208700757
 20       -124.1047021281  -22.1126636961   94.7124180731   -3.1208743926
 21       -124.1047211147  -22.1126630559   94.7124273290   -3.1208773473
 22       -124.1047340666  -22.1126625637   94.7124336643   -3.1208793718
 23       -124.1047429056  -22.1126621807   94.7124380116   -3.1208807606
 24       -124.1047489402  -22.1126618812   94.7124410017   -3.1208817142
 25       -124.1047530616  -22.1126616468   94.7124430628   -3.1208823696
 26       -124.1047558771  -22.1126614637   94.7124444863   -3.1208828204
 27       -124.1047578011  -22.1126613212   94.7124454714   -3.1208831306
 28       -124.1047591161  -22.1126612109   94.7124461541   -3.1208833444
 29       -124.1047600152  -22.1126611259   94.7124466281   -3.1208834917
 30       -124.1047606300  -22.1126610607   94.7124469575   -3.1208835933
 31       -124.1047610504  -22.1126610110   94.7124471869   -3.1208836634
 32       -124.1047613380  -22.1126609733   94.7124473467   -3.1208837118
 33       -124.1047615347  -22.1126609447   94.7124474583   -3.1208837453
 34       -124.1047616693  -22.1126609232   94.7124475361   -3.1208837684
 35       -124.1047617614  -22.1126609071   94.7124475906   -3.1208837843
Atom SCF converged after  35 iterations to a total energy of   -124.10476176

Atom SCF Calculation for H  : Z (AE atom) =   1 : Z (PS atom) =   1
Config String: 1s1.0
Orbitals (num,occ):  1     1.00
Orbitals   (num,l):  1        0
Real-space Grid (nr,dr,rmax): 1503    0.0066577896   10.0000000000
Spherical Bessel Basis (nsws,lmax,cutoff):   37    2  176.3967570603
Confining potential (l,width,scale):  0    3.0000000000  100.0000000000
  1         -0.3348525927   -0.2401819449    0.2820953128   -0.2388448411
  2         -0.4038948821   -0.2405504229    0.2866889240   -0.2416217444
  3         -0.4360732773   -0.2390089543    0.2890729861   -0.2443653791
  4         -0.4497314704   -0.2383264046    0.2899315599   -0.2456060208
  5         -0.4551901081   -0.2381357631    0.2901452306   -0.2460489407
  6         -0.4573594294   -0.2381000300    0.2901742710   -0.2461947705
  7         -0.4582326910   -0.2381004501    0.2901659451   -0.2462415077
  8         -0.4585900702   -0.2381055523    0.2901559649   -0.2462564278
  9         -0.4587384807   -0.2381092319    0.2901497571   -0.2462612174
 10         -0.4588008132   -0.2381112609    0.2901465144   -0.2462627659
 11         -0.4588272086   -0.2381122698    0.2901449456   -0.2462632682
 12         -0.4588384507   -0.2381127465    0.2901442163   -0.2462634302
 13         -0.4588432580   -0.2381129655    0.2901438848   -0.2462634814
 14         -0.4588453195   -0.2381130645    0.2901437362   -0.2462634968
 15         -0.4588462053   -0.2381131088    0.2901436700   -0.2462635011
 16         -0.4588465865   -0.2381131284    0.2901436407   -0.2462635020
 17         -0.4588467508   -0.2381131372    0.2901436278   -0.2462635020
 18         -0.4588468216   -0.2381131410    0.2901436222   -0.2462635019
Atom SCF converged after  18 iterations to a total energy of     -0.45884682

Atom SCF Calculation for O  : Z (AE atom) =   8 : Z (PS atom) =   6
Config String: 2s2.0 2p4.0
Orbitals (num,occ):  2     2.00 4.00
Orbitals   (num,l):  2        0    1
Real-space Grid (nr,dr,rmax): 1503    0.0066577896   10.0000000000
Spherical Bessel Basis (nsws,lmax,cutoff):   37    2  176.3967570603
Confining potential (l,width,scale):  0    3.0000000000  100.0000000000
Confining potential (l,width,scale):  1    3.0000000000  100.0000000000
  1         -8.3209332552   -7.4828484739   10.1554312602   -2.1270270195
  2        -15.1405599232   -3.0474882742   13.6590820486   -2.5134754209
  3        -15.5174094640   -3.1101891961   13.6243211040   -2.6472956001
  4        -15.7606118231   -3.0805775314   13.6668776248   -2.7100307789
  5        -15.8308896490   -3.0881936416   13.6633910567   -2.7338682066
  6        -15.8678540393   -3.0862312957   13.6673103078   -2.7443897972
  7        -15.8801393942   -3.0873360689   13.6669183555   -2.7485230919
  8        -15.8859601688   -3.0872977830   13.6672813272   -2.7502957173
  9        -15.8880580832   -3.0874730763   13.6672320183   -2.7510066526
 10        -15.8889924584   -3.0874981416   13.6672623218   -2.7513066537
 11        -15.8893459980   -3.0875277929   13.6672548500   -2.7514284384
 12        -15.8894977936   -3.0875355600   13.6672566096   -2.7514793465
 13        -15.8895569380   -3.0875407304   13.6672553199   -2.7515001537
 14        -15.8895817884   -3.0875424467   13.6672552475   -2.7515088021
 15        -15.8895916441   -3.0875433561   13.6672550136   -2.7515123499
 16        -15.8895957327   -3.0875436929   13.6672549605   -2.7515138192
 17        -15.8895973717   -3.0875438525   13.6672549179   -2.7515144231
 18        -15.8895980466   -3.0875439149   13.6672549044   -2.7515146726
 19        -15.8895983189   -3.0875439428   13.6672548968   -2.7515147752
 20        -15.8895984306   -3.0875439540   13.6672548940   -2.7515148175
 21        -15.8895984758   -3.0875439588   13.6672548927   -2.7515148349
Atom SCF converged after  21 iterations to a total energy of    -15.88959848

Atom SCF Calculation for Fe : Z (AE atom) =  26 : Z (PS atom) =  16
Config String: 3s2.0 3p6.0 3d6.0 4s2.0 4p0.0
Orbitals (num,occ):  5     2.00 6.00 6.00 2.00 0.00
Orbitals   (num,l):  5        0    1    2    0    1
Real-space Grid (nr,dr,rmax): 1503    0.0066577896   10.0000000000
Spherical Bessel Basis (nsws,lmax,cutoff):   37    4  176.3967570603
Confining potential (l,width,scale):  0    3.0000000000  100.0000000000
Confining potential (l,width,scale):  1    3.0000000000  100.0000000000
Confining potential (l,width,scale):  2    3.0000000000  100.0000000000
  1       -111.4005172118  -52.5575611559   72.2164000725   -4.0901868950
  2       -116.6635475262  -20.5601904919   91.7007084249   -2.2962490369
  3       -121.6156136875  -23.2753453277   92.4544705195   -2.7706732816
  4       -123.0066153699  -21.4164712440   94.7136519632   -2.9394413820
  5       -123.8168122141  -22.6370400734   94.1384349420   -3.0798102909
  6       -123.9055073486  -21.7222843370   94.9342614757   -3.0846520419
  7       -124.0956886241  -22.4138747628   94.4617720360   -3.1224050559
  8       -124.0492758687  -21.8887017510   94.8692044073   -3.1096545890
  9       -124.1222324005  -22.2877514631   94.5777385101   -3.1254730624
 10       -124.0894611846  -22.0431086758   94.7620026738   -3.1177312036
 11       -124.1066906466  -22.1417456915   94.6895757605   -3.1215019185
 12       -124.1027421480  -22.1090398813   94.7144439268   -3.1205307857
 13       -124.1039552528  -22.1131641559   94.7116547863   -3.1207645739
 14       -124.1041718268  -22.1127261003   94.7121170471   -3.1207931979
 15       -124.1043563153  -22.1126782042   94.7122440208   -3.1208211382
 16       -124.1044853288  -22.1126702816   94.7123114748   -3.1208409484
 17       -124.1045734258  -22.1126674103   94.7123551926   -3.1208545095
 18       -124.1046334193  -22.1126657134   94.7123845864   -3.1208637603
 19       -124.1046742816  -22.1126645462   94.7124045128   -3.1208700757
 20       -124.1047021281  -22.1126636961   94.7124180731   -3.1208743926
 21       -124.1047211147  -22.1126630559   94.7124273290   -3.1208773473
 22       -124.1047340666  -22.1126625637   94.7124336643   -3.1208793718
 23       -124.1047429056  -22.1126621807   94.7124380116   -3.1208807606
 24       -124.1047489402  -22.1126618812   94.7124410017   -3.1208817142
 25       -124.1047530616  -22.1126616468   94.7124430628   -3.1208823696
 26       -124.1047558771  -22.1126614637   94.7124444863   -3.1208828204
 27       -124.1047578011  -22.1126613212   94.7124454714   -3.1208831306
 28       -124.1047591161  -22.1126612109   94.7124461541   -3.1208833444
 29       -124.1047600152  -22.1126611259   94.7124466281   -3.1208834917
 30       -124.1047606300  -22.1126610607   94.7124469575   -3.1208835933
 31       -124.1047610504  -22.1126610110   94.7124471869   -3.1208836634
 32       -124.1047613380  -22.1126609733   94.7124473467   -3.1208837118
 33       -124.1047615347  -22.1126609447   94.7124474583   -3.1208837453
 34       -124.1047616693  -22.1126609232   94.7124475361   -3.1208837684
 35       -124.1047617614  -22.1126609071   94.7124475906   -3.1208837843
Atom SCF converged after  35 iterations to a total energy of   -124.10476176

Atom SCF Calculation for H  : Z (AE atom) =   1 : Z (PS atom) =   1
Config String: 1s1.0
Orbitals (num,occ):  1     1.00
Orbitals   (num,l):  1        0
Real-space Grid (nr,dr,rmax): 1503    0.0066577896   10.0000000000
Spherical Bessel Basis (nsws,lmax,cutoff):   37    2  176.3967570603
Confining potential (l,width,scale):  0    3.0000000000  100.0000000000
  1         -0.3348525927   -0.2401819449    0.2820953128   -0.2388448411
  2         -0.4038948821   -0.2405504229    0.2866889240   -0.2416217444
  3         -0.4360732773   -0.2390089543    0.2890729861   -0.2443653791
  4         -0.4497314704   -0.2383264046    0.2899315599   -0.2456060208
  5         -0.4551901081   -0.2381357631    0.2901452306   -0.2460489407
  6         -0.4573594294   -0.2381000300    0.2901742710   -0.2461947705
  7         -0.4582326910   -0.2381004501    0.2901659451   -0.2462415077
  8         -0.4585900702   -0.2381055523    0.2901559649   -0.2462564278
  9         -0.4587384807   -0.2381092319    0.2901497571   -0.2462612174
 10         -0.4588008132   -0.2381112609    0.2901465144   -0.2462627659
 11         -0.4588272086   -0.2381122698    0.2901449456   -0.2462632682
 12         -0.4588384507   -0.2381127465    0.2901442163   -0.2462634302
 13         -0.4588432580   -0.2381129655    0.2901438848   -0.2462634814
 14         -0.4588453195   -0.2381130645    0.2901437362   -0.2462634968
 15         -0.4588462053   -0.2381131088    0.2901436700   -0.2462635011
 16         -0.4588465865   -0.2381131284    0.2901436407   -0.2462635020
 17         -0.4588467508   -0.2381131372    0.2901436278   -0.2462635020
 18         -0.4588468216   -0.2381131410    0.2901436222   -0.2462635019
Atom SCF converged after  18 iterations to a total energy of     -0.45884682

Atom SCF Calculation for O  : Z (AE atom) =   8 : Z (PS atom) =   6
Config String: 2s2.0 2p4.0
Orbitals (num,occ):  2     2.00 4.00
Orbitals   (num,l):  2        0    1
Real-space Grid (nr,dr,rmax): 1503    0.0066577896   10.0000000000
Spherical Bessel Basis (nsws,lmax,cutoff):   37    2  176.3967570603
Confining potential (l,width,scale):  0    3.0000000000  100.0000000000
Confining potential (l,width,scale):  1    3.0000000000  100.0000000000
  1         -8.3209332552   -7.4828484739   10.1554312602   -2.1270270195
  2        -15.1405599232   -3.0474882742   13.6590820486   -2.5134754209
  3        -15.5174094640   -3.1101891961   13.6243211040   -2.6472956001
  4        -15.7606118231   -3.0805775314   13.6668776248   -2.7100307789
  5        -15.8308896490   -3.0881936416   13.6633910567   -2.7338682066
  6        -15.8678540393   -3.0862312957   13.6673103078   -2.7443897972
  7        -15.8801393942   -3.0873360689   13.6669183555   -2.7485230919
  8        -15.8859601688   -3.0872977830   13.6672813272   -2.7502957173
  9        -15.8880580832   -3.0874730763   13.6672320183   -2.7510066526
 10        -15.8889924584   -3.0874981416   13.6672623218   -2.7513066537
 11        -15.8893459980   -3.0875277929   13.6672548500   -2.7514284384
 12        -15.8894977936   -3.0875355600   13.6672566096   -2.7514793465
 13        -15.8895569380   -3.0875407304   13.6672553199   -2.7515001537
 14        -15.8895817884   -3.0875424467   13.6672552475   -2.7515088021
 15        -15.8895916441   -3.0875433561   13.6672550136   -2.7515123499
 16        -15.8895957327   -3.0875436929   13.6672549605   -2.7515138192
 17        -15.8895973717   -3.0875438525   13.6672549179   -2.7515144231
 18        -15.8895980466   -3.0875439149   13.6672549044   -2.7515146726
 19        -15.8895983189   -3.0875439428   13.6672548968   -2.7515147752
 20        -15.8895984306   -3.0875439540   13.6672548940   -2.7515148175
 21        -15.8895984758   -3.0875439588   13.6672548927   -2.7515148349
Atom SCF converged after  21 iterations to a total energy of    -15.88959848

BC: Task: SINGLEPOINT
BC: +++++++++++++++ Summary of boundary conditions ++++++++++++++
BC: |       Component       |     Keyword     |   Periodicity   |
BC: |                       |                 |     X  Y  Z [1] |
BC: |-----------------------------------------------------------|
BC: | Ion-ion               | ion_ion_bc [2]  |     P  P  P     |
BC: | Local pseudopotential | pspot_bc [3]    |     P  P  P     |
BC: +++++++++++++++++++++++++++++++++++++++++++++++++++++++++++++
BC: P: Periodic, O: Open.
BC: [1] Not strictly along X, Y, Z but rather along lattice vectors A1, A2, A3.
BC: [2] Also affected by: pbc_correction_cutoff, cutoff_coulomb_type,
BC:     is_smeared_ion_rep, is_implicit_solvent, openbc_ion_ion.
BC: [3] Also affected by: is_smeared_ion_rep, is_implicit_solvent, openbc_pspot.

Determining parallel strategy ...
... using space-filling curve
... NGWF load balancing: max     13;  min      6;  average      8
... Projector load balancing: max     23;  min     18;  average     21
... Hubbard Projector load balancing: max      5;  min      0;  average      1
... done
Calculating Ewald energy ...
              Ewald: real-space energy =          259.628137
        Ewald: reciprocal-space energy =           32.055934
         Ewald: (sum_charge)**2 energy =           16.660578
         Ewald: (sum_charge**2) energy =           17.162568
                          Ewald energy =          257.860925
Basis initialisation ...
... NGWF spheres initialised
... Projector spheres initialised
... Hubbard Projector spheres initialised
... NGWF tight boxes initialised
... Projector tight boxes initialised
... Tight-boxes gathered
... NGWF basis size (local,global):        108823       418827
... PAW projector initialisation
... done

============================= Charge Augmentation ==============================
                           Aug box size:   35 x  35 x  35
================================================================================
... Hubbard projector initialisation

========================== Sparse matrix information ===========================
                        Overlap matrix filling: 100.00%
                        Density kernel filling: 100.00% (known to be dense)
              NGWF-Proj overlap matrix filling: 100.00%
                    Aug Overlap matrix filling: 100.00%
      NGWF-Hubbard Proj overlap matrix filling: 100.00%
                             VW matrix filling: 100.00%
                    Hamiltonian matrix filling: 100.00%
                  NGWF diagonal matrix filling:  11.54%
                             KS matrix filling: 100.00% 
                           KSKS matrix filling: 100.00% 
================================================================================

Sparse matrix initialisation ...
 done
NGWF initialisation ... done
============ Calculation of NGWF S^-1 using Hotelling algorithm ================ 
     Iteration  |  Spin  |  Frobenius norm and Maximum abs value (of I-S*S_n^-1)
         1           1      0.67929082E+01     0.97887379E+00
         2           1      0.66125599E+01     0.95821068E+00
         3           1      0.63112652E+01     0.91822820E+00
         4           1      0.58572169E+01     0.84334238E+00
         5           1      0.52353975E+01     0.71179717E+00
         6           1      0.44792031E+01     0.64186715E+00
         7           1      0.37487175E+01     0.58815717E+00
         8           1      0.31436456E+01     0.52993175E+00
         9           1      0.24895651E+01     0.45168604E+00
        10           1      0.16912875E+01     0.34234515E+00
        11           1      0.90771347E+00     0.21061481E+00
        12           1      0.33277018E+00     0.86298535E-01
        13           1      0.54347222E-01     0.14983737E-01
        14           1      0.15602979E-02     0.45347610E-03
        15           1      0.13617747E-05     0.41601780E-06
        16           1      0.10844191E-11     0.35216274E-12
================================================================================
 done

################################################################################
DFT+U information on atom      1 of Hubbard species Fe  
################################################################################
Using the on-atom contravariant metric, the NGWF hydrogenic character
| < \phi | \psi > |**2 matrix of Hubbard site      1 is 
  m_l =   -2          -1           0           1           2         SUM
  0.00000000 -0.00000000 -0.00000000  0.00000000  0.00000000 -0.00000000
  0.00000000  0.00000000 -0.00000000 -0.00000000 -0.00000000 -0.00000000
 -0.00000000  0.00000000 -0.00000000  0.00000000 -0.00000000 -0.00000000
  0.00000000 -0.00000000 -0.00000000  0.00000000 -0.00000000 -0.00000000
  0.25511297  0.00000000  0.00000000  0.00000000 -0.00000000  0.25511297
  0.00000000  0.25515015  0.00000000 -0.00000000  0.00000000  0.25515015
  0.00000000  0.00000000  0.25664756 -0.00000000 -0.00000000  0.25664756
  0.00000000 -0.00000000 -0.00000000  0.25516047  0.00000000  0.25516047
 -0.00000000  0.00000000 -0.00000000  0.00000000  0.25661423  0.25661423
 -0.00000000  0.00000000 -0.00000000  0.00000000  0.00000000 -0.00000000
  0.00000000  0.00000000 -0.00000000 -0.00000000 -0.00000000 -0.00000000
 -0.00000000  0.00000000 -0.00000000  0.00000000  0.00000000  0.00000000
  0.00000000 -0.00000000 -0.00000000  0.00000000 -0.00000000 -0.00000000
Total hydrogenic projection of NGWFs on this atom             1.27868538
################################################################################


################################################################################
Using the subspace contravariant metric, the NGWF hydrogenic character
| < \phi | \psi > |**2 matrix of Hubbard site      1 is 
  m_l =   -2          -1           0           1           2         SUM
  0.25511297  0.00000000  0.00000000  0.00000000 -0.00000000  0.25511297
  0.00000000  0.25515015  0.00000000 -0.00000000  0.00000000  0.25515015
  0.00000000  0.00000000  0.25664754 -0.00000000 -0.00000000  0.25664754
  0.00000000 -0.00000000 -0.00000000  0.25516047  0.00000000  0.25516047
 -0.00000000  0.00000000 -0.00000000  0.00000000  0.25661416  0.25661416
Total hydrogenic projection of NGWFs on this correlated site  1.27868528
################################################################################

Calculating core density ...
================================= Core Density =================================
               Core den box size:   39 x  39 x  39
================================================================================
 ... done
Density renormalisation, spin  1 ...
Target Charge:    33.000000000000 ; Input Charge:    32.000458888463
Density renormalisation, spin  2 ...
Target Charge:    28.000000000000 ; Input Charge:    32.000458888463
Density kernel initialisation
 
======= Optimisation of K by Palser-Manolopoulos canonical purification ======== 
         Iteration  |  Band structure energy |    c_n   
               1         -41.04682561135849    0.6571267
               2         -41.60746960965155    0.6518290
               3         -42.24741529478443    0.6446424
               4         -42.97614079779737    0.6351812
               5         -43.82130574233651    0.6225089
               6         -44.82161849440529    0.6052610
               7         -45.99649188837360    0.5833749
               8         -47.29441183910694    0.5616934
               9         -48.52550841711168    0.5536053
              10         -49.37313619839205    0.5760820
              11         -49.72002510772388    0.6092270
              12         -49.82258324142688    0.5817611
              13         -49.86477943299477    0.5270337
              14         -49.88064727382512    0.5029897
              15         -49.88257293876448    0.5000382
              16         -49.88259775275326    0.5000316
              17         -49.88259775681973    0.9998174
              18         -49.88259775681973    0.9998174
Termination criterion satisfied: band energy change below threshold.
Final occupancy bounds: [    0.00000000000000:    0.99999999999998]
Closest occupancy to 0.5:     0.99999999999998
================================================================================
 
======= Optimisation of K by Palser-Manolopoulos canonical purification ======== 
         Iteration  |  Band structure energy |    c_n   
               1         -36.42380676599677    0.5536046
               2         -37.42682708809875    0.5459294
               3         -38.55845755687218    0.5366803
               4         -39.78819417065770    0.5300443
               5         -41.16075589351217    0.5313831
               6         -42.60639297575661    0.5584132
               7         -43.76051675418687    0.6416468
               8         -44.29514718750695    0.7281991
               9         -44.42813555403384    0.7440118
              10         -44.48165370704889    0.7284836
              11         -44.53292107196725    0.7014688
              12         -44.58965702969867    0.6619468
              13         -44.65065932754786    0.6037171
              14         -44.71123238148306    0.5190764
              15         -44.76084209186024    0.4105838
              16         -44.77696186944522    0.3535591
              17         -44.78426824851711    0.2762317
              18         -44.78798016788360    0.1928785
              19         -44.78863591885361    0.1764458
              20         -44.78872503236011    0.1793390
              21         -44.78881339717350    0.1837204
              22         -44.78891326824962    0.1895216
              23         -44.78902486012272    0.1971214
              24         -44.78914761255388    0.2069300
              25         -44.78927980148280    0.2193266
              26         -44.78941812403793    0.2345410
              27         -44.78955743383607    0.2524786
              28         -44.78969095759079    0.2725492
              29         -44.78981141903488    0.2936859
              30         -44.78991321279544    0.3148186
              31         -44.78999480785566    0.3358302
              32         -44.79005953957206    0.3583996
              33         -44.79011362889179    0.3857525
              34         -44.79016257100034    0.4204496
              35         -44.79020790437249    0.4593427
              36         -44.79024565608575    0.4891013
              37         -44.79026874676181    0.4992341
              38         -44.79027593115902    0.4999964
              39         -44.79027650271944    0.5000000
              40         -44.79027650603604    0.5005888
              41         -44.79027650603614    0.5005888
Termination criterion satisfied: band energy change below threshold.
Final occupancy bounds: [   -0.00000000000000:    0.99999999999987]
Closest occupancy to 0.5:     0.99999999999995
================================================================================

Writing density kernel to file "Fe_H2O_6_HighSpin.dkn" ... done

>>> Optimising kernel for current NGWFs:
   Initial electron number for spin 1:      33.00000000
   Initial electron number for spin 2:      28.00000000
     Final electron number for spin 1:      33.00000000
     Final electron number for spin 2:      28.00000000

=================== Penalty functional idempotency correction ==================
 RMS occupancy error at iteration   1:  0.000000 (step -0.5000 Ne1=     33.0000)
                                                               Ne2=     28.0000
            Final RMS occupancy error   :  0.000000 (Ne1=     33.0000)
                                                     Ne2=     28.0000
            Final occupancy bounds spin 1: [  0.000,  1.000]
            Final occupancy bounds spin 2: [  0.000,  1.000]
================================================================================

................................................................................
<<<<<<<<<<<<<< LNV (Original version) density kernel optimisation >>>>>>>>>>>>>>
~~~~~~~~~~~~~~~~~~~~~~~~~~~~~~~~~~~~~~~~~~~~~~~~~~~~~~~~~~~~~~~~~~~~~~~~~~~~~~~~
   iter  |      energy (Eh)       | rms gradient |  commutator  |   dE (Eh)

################################################################################
DFT+U information on atom      1 of Hubbard species Fe  
################################################################################
Occupancy matrix of Hubbard site      1 and spin      1 is 
  m_l =   -2          -1           0           1           2
  0.99983921 -0.00027445 -0.00003040  0.00019760 -0.00018452
 -0.00027445  0.99983341  0.00009222 -0.00003609  0.00024932
 -0.00003038  0.00009216  0.99964459  0.00020883  0.00014237
  0.00019760 -0.00003609  0.00020897  1.00016362  0.00015540
 -0.00018442  0.00024919  0.00014239  0.00015532  0.99980193
WARNING: OCCUPANCY MATRIX of Hubbard site      1 and spin      1 exceeeds 1.
################################################################################
Occupancy matrix of Hubbard site      1 and spin      2 is 
  m_l =   -2          -1           0           1           2
  0.99758570 -0.00143394 -0.00019125  0.00113157 -0.00093883
 -0.00143394  0.99757755  0.00053208 -0.00023429  0.00138623
 -0.00019110  0.00053171  0.99660863  0.00105805  0.00088882
  0.00113157 -0.00023427  0.00105875  0.99938529  0.00083724
 -0.00093830  0.00138547  0.00088893  0.00083677  0.99757188
################################################################################
Total occupancy of Hubbard site      1 is         9.98801182 e
Local magnetic moment of Hubbard site      1 is   0.01055372 mu_B
DFT+U energy of Hubbard site      1 is            0.00087754 Ha
################################################################################

      ideal mu1:      -0.142479160115
      ideal mu2:      -0.067204722670
             Q0:        -220.518214069268
             G0:      -8.756414364997
   RMS gradient:       0.085404758740
    Initial Ne1:      33.00000000
    Initial Ne2:      28.00000000
      Final Ne1:      33.00000000
      Final Ne2:      28.00000000

=================== Penalty functional idempotency correction ==================
 RMS occupancy error at iteration   1:  0.002434 (step -0.4941 Ne1=     33.0000)
                                                               Ne2=     28.0000
 RMS occupancy error at iteration   2:  0.000010 (step -0.5000 Ne1=     33.0000)
                                                               Ne2=     28.0000
            Final RMS occupancy error   :  0.000000 (Ne1=     33.0000)
                                                     Ne2=     28.0000
            Final occupancy bounds spin 1: [  0.000,  1.000]
            Final occupancy bounds spin 2: [  0.000,  1.000]
================================================================================

    1        -2.205182140693E+02     8.5405E-02     4.9741E-02

################################################################################
DFT+U information on atom      1 of Hubbard species Fe  
################################################################################
Occupancy matrix of Hubbard site      1 and spin      1 is 
  m_l =   -2          -1           0           1           2
  0.99969439 -0.00058058 -0.00005422  0.00039755 -0.00036778
 -0.00058058  0.99967207  0.00018574 -0.00006531  0.00050998
 -0.00005419  0.00018562  0.99928505  0.00042715  0.00030827
  0.00039755 -0.00006531  0.00042743  1.00036756  0.00030898
 -0.00036758  0.00050971  0.00030831  0.00030882  0.99962540
WARNING: OCCUPANCY MATRIX of Hubbard site      1 and spin      1 exceeeds 1.
################################################################################
Occupancy matrix of Hubbard site      1 and spin      2 is 
  m_l =   -2          -1           0           1           2
  0.98919468 -0.00599170 -0.00060924  0.00469837 -0.00413056
 -0.00599170  0.98923921  0.00251115 -0.00101567  0.00565240
 -0.00060874  0.00250943  0.98544170  0.00439670  0.00335926
  0.00469839 -0.00101557  0.00439960  0.99674486  0.00361681
 -0.00412826  0.00564931  0.00335970  0.00361482  0.98922547
################################################################################
Total occupancy of Hubbard site      1 is         9.94849038 e
Local magnetic moment of Hubbard site      1 is   0.04879855 mu_B
DFT+U energy of Hubbard site      1 is            0.00372036 Ha
################################################################################

      ideal mu1:      -0.250523333657
      ideal mu2:      -0.188780983722
             Q0:        -221.348091018585
             G0:     -14.172924939088
   RMS gradient:       0.079060364891
    Initial Ne1:      33.00000000
    Initial Ne2:      27.99999999
      Final Ne1:      33.00000000
      Final Ne2:      28.00000000

=================== Penalty functional idempotency correction ==================
 RMS occupancy error at iteration   1:  0.012304 (step -0.4677 Ne1=     33.0000)
                                                               Ne2=     28.0000
 RMS occupancy error at iteration   2:  0.000330 (step -0.5004 Ne1=     33.0000)
                                                               Ne2=     28.0000
 RMS occupancy error at iteration   3:  0.000001 (step -0.5000 Ne1=     33.0000)
                                                               Ne2=     28.0000
            Final RMS occupancy error   :  0.000000 (Ne1=     33.0000)
                                                     Ne2=     28.0000
            Final occupancy bounds spin 1: [  0.000,  1.000]
            Final occupancy bounds spin 2: [  0.000,  1.000]
================================================================================

    2        -2.213480910186E+02     7.9060E-02     4.6687E-02    -8.2988E-01

################################################################################
DFT+U information on atom      1 of Hubbard species Fe  
################################################################################
Occupancy matrix of Hubbard site      1 and spin      1 is 
  m_l =   -2          -1           0           1           2
  0.99804387 -0.00069412 -0.00003123  0.00040030 -0.00035723
 -0.00069413  0.99799160  0.00018663 -0.00003423  0.00055555
 -0.00003121  0.00018652  0.99756815  0.00046886  0.00039696
  0.00040030 -0.00003423  0.00046917  0.99882413  0.00030146
 -0.00035704  0.00055526  0.00039701  0.00030131  0.99800358
################################################################################
Occupancy matrix of Hubbard site      1 and spin      2 is 
  m_l =   -2          -1           0           1           2
  0.95122745 -0.02475506 -0.00205120  0.01947143 -0.01770510
 -0.02475507  0.95170025  0.01124884 -0.00437228  0.02306717
 -0.00204950  0.01124119  0.93664919  0.01814615  0.01294926
  0.01947151 -0.00437187  0.01815814  0.98264557  0.01536052
 -0.01769525  0.02305459  0.01295095  0.01535212  0.95169030
################################################################################
Total occupancy of Hubbard site      1 is         9.76434410 e
Local magnetic moment of Hubbard site      1 is   0.21651856 mu_B
DFT+U energy of Hubbard site      1 is            0.01608400 Ha
################################################################################

      ideal mu1:      -0.464668633858
      ideal mu2:      -0.435249045638
             Q0:        -222.578522107597
             G0:     -15.369691407118
   RMS gradient:       0.073712237257
    Initial Ne1:      33.00000000
    Initial Ne2:      28.00000000
      Final Ne1:      33.00000000
      Final Ne2:      28.00000000

=================== Penalty functional idempotency correction ==================
 RMS occupancy error at iteration   1:  0.034019 (step -0.3990 Ne1=     33.0000)
                                                               Ne2=     28.0000
 RMS occupancy error at iteration   2:  0.002959 (step -0.4992 Ne1=     33.0000)
                                                               Ne2=     28.0000
 RMS occupancy error at iteration   3:  0.000043 (step -0.5002 Ne1=     33.0000)
                                                               Ne2=     28.0000
            Final RMS occupancy error   :  0.000000 (Ne1=     33.0000)
                                                     Ne2=     28.0000
            Final occupancy bounds spin 1: [ -0.000,  1.000]
            Final occupancy bounds spin 2: [ -0.000,  1.000]
================================================================================

    3        -2.225785221076E+02     7.3712E-02     4.4666E-02    -1.2304E+00

################################################################################
DFT+U information on atom      1 of Hubbard species Fe  
################################################################################
Occupancy matrix of Hubbard site      1 and spin      1 is 
  m_l =   -2          -1           0           1           2
  0.99124168  0.00069468  0.00027069 -0.00075322  0.00089416
  0.00069468  0.99108419 -0.00045982  0.00018706 -0.00094735
  0.00027051 -0.00045951  0.99173775 -0.00076243 -0.00027792
 -0.00075322  0.00018705 -0.00076293  0.99029191 -0.00082028
  0.00089368 -0.00094684 -0.00027795 -0.00081984  0.99142804
################################################################################
Occupancy matrix of Hubbard site      1 and spin      2 is 
  m_l =   -2          -1           0           1           2
  0.85219247 -0.07070683 -0.00560398  0.05588503 -0.05120068
 -0.07070687  0.85382279  0.03279550 -0.01274970  0.06572920
 -0.00559933  0.03277320  0.81106734  0.05196334  0.03617624
  0.05588527 -0.01274851  0.05199768  0.94219483  0.04424813
 -0.05117221  0.06569335  0.03618092  0.04422398  0.85361307
################################################################################
Total occupancy of Hubbard site      1 is         9.26867407 e
Local magnetic moment of Hubbard site      1 is   0.64289306 mu_B
DFT+U energy of Hubbard site      1 is            0.04282398 Ha
################################################################################

      ideal mu1:      -0.755103034884
      ideal mu2:      -0.768110336281
             Q0:        -223.625721494216
             G0:     -12.487041060812
   RMS gradient:       0.074409654804
    Initial Ne1:      33.00000008
    Initial Ne2:      28.00000002
      Final Ne1:      33.00000000
      Final Ne2:      28.00000000

=================== Penalty functional idempotency correction ==================
 RMS occupancy error at iteration   1:  0.077449 (step -0.2951 Ne1=     33.0000)
                                                               Ne2=     28.0000
 RMS occupancy error at iteration   2:  0.010915 (step -0.4849 Ne1=     33.0000)
                                                               Ne2=     28.0000
 RMS occupancy error at iteration   3:  0.000365 (step -0.5021 Ne1=     33.0000)
                                                               Ne2=     28.0000
            Final RMS occupancy error   :  0.000001 (Ne1=     33.0000)
                                                     Ne2=     28.0000
            Final occupancy bounds spin 1: [ -0.000,  1.000]
            Final occupancy bounds spin 2: [ -0.000,  1.000]
================================================================================

    4        -2.236257214942E+02     7.4410E-02     4.4800E-02    -1.0472E+00

################################################################################
DFT+U information on atom      1 of Hubbard species Fe  
################################################################################
Occupancy matrix of Hubbard site      1 and spin      1 is 
  m_l =   -2          -1           0           1           2
  0.97304786  0.00571469  0.00134373 -0.00453821  0.00526374
  0.00571473  0.97246715 -0.00279875  0.00066024 -0.00636845
  0.00134283 -0.00279689  0.97689614 -0.00519664 -0.00287757
 -0.00453825  0.00066020 -0.00520008  0.96583744 -0.00488446
  0.00526093 -0.00636503 -0.00287794 -0.00488190  0.97375137
################################################################################
Occupancy matrix of Hubbard site      1 and spin      2 is 
  m_l =   -2          -1           0           1           2
  0.70219572 -0.13368747 -0.01162562  0.10606326 -0.09600469
 -0.13368757  0.70476862  0.06018578 -0.02412141  0.12474028
 -0.01161616  0.06014487  0.62201697  0.09869561  0.06950177
  0.10606370 -0.02411917  0.09876084  0.87202730  0.08285594
 -0.09595132  0.12467228  0.06951078  0.08281076  0.70333434
################################################################################
Total occupancy of Hubbard site      1 is         8.46634291 e
Local magnetic moment of Hubbard site      1 is   1.25765701 mu_B
DFT+U energy of Hubbard site      1 is            0.06960104 Ha
################################################################################

      ideal mu1:      -1.050332577149
      ideal mu2:      -1.086173729262
    5        -2.240558422263E+02     9.2200E-02     5.3390E-02    -4.3012E-01
Finished density kernel iterations (   5)

Writing density kernel to file "Fe_H2O_6_HighSpin.dkn" ... done


>>> Density kernel optimised for the current NGWF basis:
     ~~~~~~~~~~~~~~~~~~~~~~~~~~~~~~~~~~~~~~~~~~~~~~~~~~~~~~~~~~~
     Total energy                =  -2.24055842226309E+02  Eh
     Estimated bandgap (UP spin) =  -4.4144E-01  Eh
     Estimated bandgap (DN spin) =  -6.5316E-01  Eh
     RMS occupancy error         =   5.6971E-07
     [H,K] commutator            =   5.3390E-02
     UP spin occupancy bounds    = [ -0.000:  1.000]
     DN spin occupancy bounds    = [ -0.000:  1.000]
     ~~~~~~~~~~~~~~~~~~~~~~~~~~~~~~~~~~~~~~~~~~~~~~~~~~~~~~~~~~~




################################################################################
########################### NGWF CG iteration  001 #############################
################################################################################
****** Reciprocal space K.E. preconditioning with k_zero =  3.0000 a0^-1 *******

>>> Checking for convergence of NGWFs:   NOT CONVERGED
  ========================================================================
         NGWF RMS gradient =  1.5066E-03 >  2.0000E-06  | above tolerance
  ========================================================================

>>> Improving NGWFs using line search:
============ Calculation of NGWF S^-1 using Hotelling algorithm ================ 
     Iteration  |  Spin  |  Frobenius norm and Maximum abs value (of I-S*S_n^-1)
         1           1      0.99435412E-01     0.36087613E-01
         2           1      0.17384473E-02     0.67005845E-03
         3           1      0.88929807E-06     0.38896228E-06
         4           1      0.24933612E-12     0.12967405E-12
================================================================================

################################################################################
DFT+U information on atom      1 of Hubbard species Fe  
################################################################################
Occupancy matrix of Hubbard site      1 and spin      1 is 
  m_l =   -2          -1           0           1           2
  0.97218649  0.00587256  0.00139301 -0.00463070  0.00541135
  0.00587261  0.97157358 -0.00288689  0.00064384 -0.00656293
  0.00139208 -0.00288497  0.97612584 -0.00534814 -0.00298191
 -0.00463074  0.00064380 -0.00535168  0.96477569 -0.00504299
  0.00540847 -0.00655941 -0.00298229 -0.00504034  0.97287262
################################################################################
Occupancy matrix of Hubbard site      1 and spin      2 is 
  m_l =   -2          -1           0           1           2
  0.69690099 -0.13575444 -0.01175886  0.10777177 -0.09755724
 -0.13575455  0.69952890  0.06119898 -0.02456504  0.12663412
 -0.01174929  0.06115738  0.61554988  0.10021795  0.07046226
  0.10777221 -0.02456277  0.10028418  0.86939936  0.08415940
 -0.09750301  0.12656509  0.07047140  0.08411351  0.69805974
################################################################################
Total occupancy of Hubbard site      1 is         8.43697308 e
Local magnetic moment of Hubbard site      1 is   1.27809536 mu_B
DFT+U energy of Hubbard site      1 is            0.07026406 Ha
################################################################################

============ Calculation of NGWF S^-1 using Hotelling algorithm ================ 
     Iteration  |  Spin  |  Frobenius norm and Maximum abs value (of I-S*S_n^-1)
         1           1      0.89090810E+00     0.30674719E+00
         2           1      0.14253168E+00     0.52380011E-01
         3           1      0.65605609E-02     0.28829962E-02
         4           1      0.18186263E-04     0.94817365E-05
         5           1      0.20490767E-09     0.11854606E-09
         6           1      0.33492207E-14     0.66613381E-15
================================================================================

################################################################################
DFT+U information on atom      1 of Hubbard species Fe  
################################################################################
Occupancy matrix of Hubbard site      1 and spin      1 is 
  m_l =   -2          -1           0           1           2
  0.95525761  0.00392048  0.00172967 -0.00274112  0.00401890
  0.00392052  0.95451393 -0.00181432 -0.00022754 -0.00531471
  0.00172852 -0.00181313  0.95830897 -0.00421252 -0.00264926
 -0.00274116 -0.00022754 -0.00421531  0.95036256 -0.00421422
  0.00401679 -0.00531186 -0.00264961 -0.00421201  0.95579970
################################################################################
Occupancy matrix of Hubbard site      1 and spin      2 is 
  m_l =   -2          -1           0           1           2
  0.64635107 -0.15350997 -0.01291578  0.12242779 -0.11081134
 -0.15351010  0.64936286  0.06973542 -0.02838620  0.14283654
 -0.01290524  0.06968803  0.55474591  0.11328411  0.07869032
  0.12242828 -0.02838361  0.11335898  0.84164360  0.09522149
 -0.11074976  0.14275868  0.07870051  0.09516960  0.64745381
################################################################################
Total occupancy of Hubbard site      1 is         8.11380002 e
Local magnetic moment of Hubbard site      1 is   1.43468554 mu_B
DFT+U energy of Hubbard site      1 is            0.07863014 Ha
################################################################################

============ Calculation of NGWF S^-1 using Hotelling algorithm ================ 
     Iteration  |  Spin  |  Frobenius norm and Maximum abs value (of I-S*S_n^-1)
         1           1      0.90271011E-01     0.28404547E-01
         2           1      0.14863152E-02     0.57017857E-03
         3           1      0.63635963E-06     0.28164014E-06
         4           1      0.12813735E-12     0.68944850E-13
================================================================================
------------------------------- NGWF line search -------------------------------
RMS gradient                =       0.00150660576089
Trial step length           =               0.122474
Gradient along search dir.  =         -3.59121959512
Functional at step 0        =    -224.05584222630912
Functional at step 1        =    -224.47371316118625
Rejected quadratic step     =               1.226406
Functional at new step 1    =    -226.03481914714689
Functional predicted        =    -226.05535464213111
Selected quadratic step     =               1.113556
Conjugate gradients coeff.  =               0.000000
--------------------------- NGWF line search finished --------------------------
                                               
Writing NGWFs to file "Fe_H2O_6_HighSpin.tightbox_ngwfs".... done

>>> Optimising kernel for current NGWFs:
   Initial electron number for spin 1:      33.42388132
   Initial electron number for spin 2:      28.39049780
     Final electron number for spin 1:      33.00000000
     Final electron number for spin 2:      28.00000000

=================== Penalty functional idempotency correction ==================
 RMS occupancy error at iteration   1:  0.020333 (step -0.4769 Ne1=     33.0000)
                                                               Ne2=     28.0000
 RMS occupancy error at iteration   2:  0.002862 (step -0.5158 Ne1=     33.0000)
                                                               Ne2=     28.0000
 RMS occupancy error at iteration   3:  0.000033 (step -0.5000 Ne1=     33.0000)
                                                               Ne2=     28.0000
            Final RMS occupancy error   :  0.000000 (Ne1=     33.0000)
                                                     Ne2=     28.0000
            Final occupancy bounds spin 1: [  0.000,  1.000]
            Final occupancy bounds spin 2: [  0.000,  1.000]
================================================================================

................................................................................
<<<<<<<<<<<<<< LNV (Original version) density kernel optimisation >>>>>>>>>>>>>>
~~~~~~~~~~~~~~~~~~~~~~~~~~~~~~~~~~~~~~~~~~~~~~~~~~~~~~~~~~~~~~~~~~~~~~~~~~~~~~~~
   iter  |      energy (Eh)       | rms gradient |  commutator  |   dE (Eh)

################################################################################
DFT+U information on atom      1 of Hubbard species Fe  
################################################################################
Occupancy matrix of Hubbard site      1 and spin      1 is 
  m_l =   -2          -1           0           1           2
  0.96045878  0.00719701  0.00180908 -0.00555628  0.00680718
  0.00719705  0.95947894 -0.00382743  0.00058685 -0.00829447
  0.00180784 -0.00382486  0.96498448 -0.00666343 -0.00382421
 -0.00555634  0.00058678 -0.00666784  0.95119760 -0.00654060
  0.00680352 -0.00829000 -0.00382469 -0.00653713  0.96081287
################################################################################
Occupancy matrix of Hubbard site      1 and spin      2 is 
  m_l =   -2          -1           0           1           2
  0.65098449 -0.15159973 -0.01278720  0.12086152 -0.10940143
 -0.15159985  0.65396679  0.06884297 -0.02798108  0.14109972
 -0.01277676  0.06879618  0.56050773  0.11188063  0.07779903
  0.12086200 -0.02797852  0.11195456  0.84384325  0.09404989
 -0.10934064  0.14102280  0.07780910  0.09399864  0.65211852
################################################################################
Total occupancy of Hubbard site      1 is         8.15835346 e
Local magnetic moment of Hubbard site      1 is   1.43551189 mu_B
DFT+U energy of Hubbard site      1 is            0.07698592 Ha
################################################################################

      ideal mu1:      -0.992615527443
      ideal mu2:      -1.035381021523
             Q0:        -226.100044713513
             G0:      -1.691718564270
   RMS gradient:       0.037539023863

################################################################################
DFT+U information on atom      1 of Hubbard species Fe  
################################################################################
Occupancy matrix of Hubbard site      1 and spin      1 is 
  m_l =   -2          -1           0           1           2
  0.95046618  0.01191822  0.00325648 -0.00842083  0.01145694
  0.01191828  0.94844747 -0.00661881  0.00021240 -0.01417446
  0.00325428 -0.00661439  0.95756023 -0.01125719 -0.00657519
 -0.00842092  0.00021230 -0.01126464  0.93518620 -0.01137593
  0.01145080 -0.01416683 -0.00657603 -0.01136992  0.95045695
################################################################################
Occupancy matrix of Hubbard site      1 and spin      2 is 
  m_l =   -2          -1           0           1           2
  0.50574550 -0.21407394 -0.01731987  0.17237172 -0.15610512
 -0.21407411  0.51050424  0.09908867 -0.04094998  0.19871675
 -0.01730558  0.09902130  0.37922514  0.15816222  0.10771452
  0.17237237 -0.04094630  0.15826669  0.77946476  0.13355246
 -0.15601836  0.19860837  0.10772842  0.13347968  0.50780910
################################################################################
Total occupancy of Hubbard site      1 is         7.42486578 e
Local magnetic moment of Hubbard site      1 is   2.05936829 mu_B
DFT+U energy of Hubbard site      1 is            0.07264615 Ha
################################################################################

     Trial step:       0.500000000000
             Q1:        -226.395519883222
 Quadratic coef:       0.550384112426
 Linear coef   :      -0.845859282135
           Qmin:        -226.425034983499
Quadratic minimum step length (  0.384213162697) accepted
    Initial Ne1:      32.99999938
    Initial Ne2:      28.00000009
      Final Ne1:      33.00000000
      Final Ne2:      28.00000000

=================== Penalty functional idempotency correction ==================
 RMS occupancy error at iteration   1:  0.010582 (step -0.4568 Ne1=     33.0000)
                                                               Ne2=     28.0000
 RMS occupancy error at iteration   2:  0.000332 (step -0.4998 Ne1=     33.0000)
                                                               Ne2=     28.0000
 RMS occupancy error at iteration   3:  0.000001 (step -0.5000 Ne1=     33.0000)
                                                               Ne2=     28.0000
            Final RMS occupancy error   :  0.000000 (Ne1=     33.0000)
                                                     Ne2=     28.0000
            Final occupancy bounds spin 1: [  0.000,  1.000]
            Final occupancy bounds spin 2: [  0.000,  1.000]
================================================================================

    1        -2.261000447135E+02     3.7539E-02     2.2284E-02

################################################################################
DFT+U information on atom      1 of Hubbard species Fe  
################################################################################
Occupancy matrix of Hubbard site      1 and spin      1 is 
  m_l =   -2          -1           0           1           2
  0.95288051  0.01074062  0.00289723 -0.00771084  0.01030248
  0.01074068  0.95111883 -0.00592490  0.00030941 -0.01271059
  0.00289526 -0.00592095  0.95933428 -0.01011357 -0.00588564
 -0.00771092  0.00030932 -0.01012026  0.93910190 -0.01017420
  0.01029695 -0.01270375 -0.00588639 -0.01016883  0.95296557
################################################################################
Occupancy matrix of Hubbard site      1 and spin      2 is 
  m_l =   -2          -1           0           1           2
  0.53154541 -0.20330068 -0.01585498  0.16374359 -0.14921709
 -0.20330084  0.53657084  0.09554150 -0.03908498  0.18851147
 -0.01584180  0.09547654  0.41296662  0.15018673  0.10116687
  0.16374422 -0.03908147  0.15028595  0.79180280  0.12766186
 -0.14913418  0.18840866  0.10117990  0.12759231  0.53429164
################################################################################
Total occupancy of Hubbard site      1 is         7.56257840 e
Local magnetic moment of Hubbard site      1 is   1.94822380 mu_B
DFT+U energy of Hubbard site      1 is            0.07444748 Ha
################################################################################

      ideal mu1:      -1.014810575013
      ideal mu2:      -1.060752070043
             Q0:        -226.443206393220
             G0:      -0.875140604123
   RMS gradient:       0.026239386341

################################################################################
DFT+U information on atom      1 of Hubbard species Fe  
################################################################################
Occupancy matrix of Hubbard site      1 and spin      1 is 
  m_l =   -2          -1           0           1           2
  0.95779766  0.01209053  0.00363454 -0.00813132  0.01205129
  0.01209058  0.95530055 -0.00712193 -0.00027494 -0.01494998
  0.00363208 -0.00711717  0.96462498 -0.01170727 -0.00681050
 -0.00813141 -0.00027503 -0.01171502  0.94232564 -0.01222116
  0.01204482 -0.01494194 -0.00681136 -0.01221471  0.95729976
################################################################################
Occupancy matrix of Hubbard site      1 and spin      2 is 
  m_l =   -2          -1           0           1           2
  0.44376380 -0.24707035 -0.02053849  0.19921959 -0.17939655
 -0.24707055  0.44888780  0.11313023 -0.04728067  0.22949098
 -0.02052162  0.11305332  0.29618458  0.18251422  0.12516343
  0.19922027 -0.04727638  0.18263469  0.76010679  0.15325773
 -0.17929679  0.22936580  0.12517957  0.15317423  0.44562077
################################################################################
Total occupancy of Hubbard site      1 is         7.17191233 e
Local magnetic moment of Hubbard site      1 is   2.38278487 mu_B
DFT+U energy of Hubbard site      1 is            0.05848080 Ha
################################################################################

     Trial step:       0.438299647899
             Q1:        -226.536066229918
 Quadratic coef:       0.290713981952
 Linear coef   :      -0.383573818649
           Qmin:        -226.569730127446
Quadratic minimum step length (  0.289150643063) accepted
    Initial Ne1:      32.99999977
    Initial Ne2:      28.00000003
      Final Ne1:      33.00000000
      Final Ne2:      28.00000000

=================== Penalty functional idempotency correction ==================
 RMS occupancy error at iteration   1:  0.012723 (step -0.4464 Ne1=     33.0000)
                                                               Ne2=     28.0000
 RMS occupancy error at iteration   2:  0.000452 (step -0.4997 Ne1=     33.0000)
                                                               Ne2=     28.0000
 RMS occupancy error at iteration   3:  0.000001 (step -0.5000 Ne1=     33.0000)
                                                               Ne2=     28.0000
            Final RMS occupancy error   :  0.000000 (Ne1=     33.0000)
                                                     Ne2=     28.0000
            Final occupancy bounds spin 1: [  0.000,  1.000]
            Final occupancy bounds spin 2: [  0.000,  1.000]
================================================================================

    2        -2.264432063932E+02     2.6239E-02     1.5253E-02    -3.4316E-01

################################################################################
DFT+U information on atom      1 of Hubbard species Fe  
################################################################################
Occupancy matrix of Hubbard site      1 and spin      1 is 
  m_l =   -2          -1           0           1           2
  0.95629877  0.01163515  0.00340417 -0.00800305  0.01149771
  0.01163520  0.95403207 -0.00673861 -0.00007779 -0.01422672
  0.00340186 -0.00673411  0.96299316 -0.01119528 -0.00648940
 -0.00800314 -0.00007789 -0.01120269  0.94138086 -0.01157256
  0.01149154 -0.01421907 -0.00649022 -0.01156645  0.95600277
################################################################################
Occupancy matrix of Hubbard site      1 and spin      2 is 
  m_l =   -2          -1           0           1           2
  0.46130889 -0.23764582 -0.01814903  0.19224609 -0.17536520
 -0.23764600  0.46757945  0.11278668 -0.04638485  0.22013233
 -0.01813387  0.11270999  0.32347572  0.17561909  0.11705825
  0.19224678 -0.04638070  0.17573505  0.76657444  0.14966938
 -0.17526774  0.22001224  0.11707329  0.14958786  0.46497311
################################################################################
Total occupancy of Hubbard site      1 is         7.25461924 e
Local magnetic moment of Hubbard site      1 is   2.28679602 mu_B
DFT+U energy of Hubbard site      1 is            0.06256540 Ha
################################################################################

      ideal mu1:      -1.030776856588
      ideal mu2:      -1.076717159643
             Q0:        -226.589768732768
             G0:      -0.385611395387
   RMS gradient:       0.016300052208

################################################################################
DFT+U information on atom      1 of Hubbard species Fe  
################################################################################
Occupancy matrix of Hubbard site      1 and spin      1 is 
  m_l =   -2          -1           0           1           2
  0.96786434  0.00979422  0.00304134 -0.00639534  0.00985450
  0.00979425  0.96567553 -0.00590024 -0.00038796 -0.01227197
  0.00303927 -0.00589630  0.97324666 -0.00948892 -0.00559645
 -0.00639542 -0.00038804 -0.00949520  0.95548205 -0.01004546
  0.00984920 -0.01226537 -0.00559717 -0.01004015  0.96721544
################################################################################
Occupancy matrix of Hubbard site      1 and spin      2 is 
  m_l =   -2          -1           0           1           2
  0.42047595 -0.26441842 -0.02134862  0.21359526 -0.19373351
 -0.26441860  0.42701172  0.12345361 -0.05091869  0.24561882
 -0.02133094  0.12336966  0.26475779  0.19544757  0.13233455
  0.21359595 -0.05091403  0.19557652  0.76040962  0.16544105
 -0.19362575  0.24548479  0.13235157  0.16535093  0.42416612
################################################################################
Total occupancy of Hubbard site      1 is         7.12630523 e
Local magnetic moment of Hubbard site      1 is   2.53266281 mu_B
DFT+U energy of Hubbard site      1 is            0.04727681 Ha
################################################################################

     Trial step:       0.355998068877
             Q1:        -226.660927698622
 Quadratic coef:       0.066117946242
 Linear coef   :      -0.137276912095
           Qmin:        -226.661023784027
Quadratic minimum step length (  0.369569219743) accepted
    Initial Ne1:      32.99999989
    Initial Ne2:      28.00000002
      Final Ne1:      33.00000000
      Final Ne2:      28.00000000

=================== Penalty functional idempotency correction ==================
 RMS occupancy error at iteration   1:  0.012427 (step -0.4453 Ne1=     33.0000)
                                                               Ne2=     28.0000
 RMS occupancy error at iteration   2:  0.000438 (step -0.4996 Ne1=     33.0000)
                                                               Ne2=     28.0000
 RMS occupancy error at iteration   3:  0.000001 (step -0.5000 Ne1=     33.0000)
                                                               Ne2=     28.0000
            Final RMS occupancy error   :  0.000000 (Ne1=     33.0000)
                                                     Ne2=     28.0000
            Final occupancy bounds spin 1: [  0.000,  1.000]
            Final occupancy bounds spin 2: [  0.000,  1.000]
================================================================================

    3        -2.265897687328E+02     1.6300E-02     9.4359E-03    -1.4656E-01

################################################################################
DFT+U information on atom      1 of Hubbard species Fe  
################################################################################
Occupancy matrix of Hubbard site      1 and spin      1 is 
  m_l =   -2          -1           0           1           2
  0.96830493  0.00972487  0.00302578 -0.00633550  0.00978960
  0.00972490  0.96612118 -0.00586623 -0.00039762 -0.01219487
  0.00302372 -0.00586231  0.97363952 -0.00942222 -0.00556229
 -0.00633558 -0.00039770 -0.00942846  0.95602004 -0.00998350
  0.00978434 -0.01218832 -0.00556300 -0.00997823  0.96764469
################################################################################
Occupancy matrix of Hubbard site      1 and spin      2 is 
  m_l =   -2          -1           0           1           2
  0.41635136 -0.26648679 -0.02120782  0.21547348 -0.19586681
 -0.26648697  0.42322985  0.12524953 -0.05154819  0.24743745
 -0.02119020  0.12516435  0.26022675  0.19701367  0.13265660
  0.21547417 -0.05154348  0.19714364  0.75924717  0.16720990
 -0.19575786  0.24730242  0.13267365  0.16711883  0.42045431
################################################################################
Total occupancy of Hubbard site      1 is         7.11123980 e
Local magnetic moment of Hubbard site      1 is   2.55222091 mu_B
DFT+U energy of Hubbard site      1 is            0.04607975 Ha
[...]
**********************************************************
TOTAL:             -0.00215508   0.00414313   0.00085113
 
********************* Unconstrained **********************
************ NGWF non self-consistent forces *************
*                                                        *
* Element  Atom         Cartesian components (Eh/a)      *
* ------------------------------------------------------ *
*                       x            y            z      *
*                                                        *
*    Fe      1      0.00003458  -0.00003279   0.00001870 *
*    O       2      0.00157379   0.00025824   0.00184317 *
*    O       3     -0.00157218  -0.00024598  -0.00185182 *
*    O       4     -0.00087472  -0.00215440   0.00104597 *
*    O       5      0.00064551   0.00228067  -0.00087147 *
*    O       6      0.00175942  -0.00120589  -0.00137508 *
*    O       7     -0.00173310   0.00123361   0.00137693 *
*    H       8      0.00006990   0.00003305  -0.00005170 *
*    H       9     -0.00005818  -0.00005580  -0.00001016 *
*    H      10     -0.00000338   0.00003155   0.00008998 *
*    H      11     -0.00002082   0.00005895  -0.00007156 *
*    H      12     -0.00007654   0.00002307  -0.00002408 *
*    H      13     -0.00002844   0.00007534   0.00000214 *
*    H      14      0.00005350   0.00006049   0.00001305 *
*    H      15      0.00003066  -0.00007567  -0.00000446 *
*    H      16      0.00008101  -0.00002890   0.00002275 *
*    H      17     -0.00006995  -0.00003111   0.00005118 *
*    H      18      0.00001468  -0.00005981   0.00007201 *
*    H      19      0.00000739  -0.00003874  -0.00008881 *
*                                                        *
**********************************************************
TOTAL:             -0.00016688   0.00012589   0.00018673
 
********************* Unconstrained **********************
********************** NLCC forces ***********************
*                                                        *
* Element  Atom         Cartesian components (Eh/a)      *
* ------------------------------------------------------ *
*                       x            y            z      *
*                                                        *
*    Fe      1     -0.00000000   0.00000000  -0.00000000 *
*    O       2     -0.00000048  -0.00000010  -0.00000055 *
*    O       3      0.00000047   0.00000008   0.00000055 *
*    O       4      0.00000022   0.00000070  -0.00000025 *
*    O       5     -0.00000020  -0.00000072   0.00000023 *
*    O       6     -0.00000051   0.00000033   0.00000043 *
*    O       7      0.00000051  -0.00000033  -0.00000042 *
*    H       8      0.00000000   0.00000000   0.00000000 *
*    H       9      0.00000000   0.00000000   0.00000000 *
*    H      10      0.00000000   0.00000000   0.00000000 *
*    H      11      0.00000000   0.00000000   0.00000000 *
*    H      12      0.00000000   0.00000000   0.00000000 *
*    H      13      0.00000000   0.00000000   0.00000000 *
*    H      14      0.00000000   0.00000000   0.00000000 *
*    H      15      0.00000000   0.00000000   0.00000000 *
*    H      16      0.00000000   0.00000000   0.00000000 *
*    H      17      0.00000000   0.00000000   0.00000000 *
*    H      18      0.00000000   0.00000000   0.00000000 *
*    H      19      0.00000000   0.00000000   0.00000000 *
*                                                        *
**********************************************************
TOTAL:              0.00000002  -0.00000003  -0.00000000
 
********************* Unconstrained **********************
********************** DFT+U forces **********************
*                                                        *
* Element  Atom         Cartesian components (Eh/a)      *
* ------------------------------------------------------ *
*                       x            y            z      *
*                                                        *
*    Fe      1     -0.00001046   0.00002069   0.00000131 *
*    O       2      0.00000000   0.00000000   0.00000000 *
*    O       3      0.00000000   0.00000000   0.00000000 *
*    O       4      0.00000000   0.00000000   0.00000000 *
*    O       5      0.00000000   0.00000000   0.00000000 *
*    O       6      0.00000000   0.00000000   0.00000000 *
*    O       7      0.00000000   0.00000000   0.00000000 *
*    H       8      0.00000000   0.00000000   0.00000000 *
*    H       9      0.00000000   0.00000000   0.00000000 *
*    H      10      0.00000000   0.00000000   0.00000000 *
*    H      11      0.00000000   0.00000000   0.00000000 *
*    H      12      0.00000000   0.00000000   0.00000000 *
*    H      13      0.00000000   0.00000000   0.00000000 *
*    H      14      0.00000000   0.00000000   0.00000000 *
*    H      15      0.00000000   0.00000000   0.00000000 *
*    H      16      0.00000000   0.00000000   0.00000000 *
*    H      17      0.00000000   0.00000000   0.00000000 *
*    H      18      0.00000000   0.00000000   0.00000000 *
*    H      19      0.00000000   0.00000000   0.00000000 *
*                                                        *
**********************************************************
TOTAL:             -0.00001046   0.00002069   0.00000131
 
********************* Unconstrained **********************
****** Correction to ensure the total force is zero ******
*                                                        *
* Element  Atom         Cartesian components (Eh/a)      *
* ------------------------------------------------------ *
*                       x            y            z      *
*                                                        *
*    Fe      1      0.00000021  -0.00000234  -0.00000129 *
*    O       2      0.00000021  -0.00000234  -0.00000129 *
*    O       3      0.00000021  -0.00000234  -0.00000129 *
*    O       4      0.00000021  -0.00000234  -0.00000129 *
*    O       5      0.00000021  -0.00000234  -0.00000129 *
*    O       6      0.00000021  -0.00000234  -0.00000129 *
*    O       7      0.00000021  -0.00000234  -0.00000129 *
*    H       8      0.00000021  -0.00000234  -0.00000129 *
*    H       9      0.00000021  -0.00000234  -0.00000129 *
*    H      10      0.00000021  -0.00000234  -0.00000129 *
*    H      11      0.00000021  -0.00000234  -0.00000129 *
*    H      12      0.00000021  -0.00000234  -0.00000129 *
*    H      13      0.00000021  -0.00000234  -0.00000129 *
*    H      14      0.00000021  -0.00000234  -0.00000129 *
*    H      15      0.00000021  -0.00000234  -0.00000129 *
*    H      16      0.00000021  -0.00000234  -0.00000129 *
*    H      17      0.00000021  -0.00000234  -0.00000129 *
*    H      18      0.00000021  -0.00000234  -0.00000129 *
*    H      19      0.00000021  -0.00000234  -0.00000129 *
*                                                        *
**********************************************************
TOTAL:              0.00000407  -0.00004447  -0.00002442

********************* Unconstrained **********************
************************* Forces *************************
*                                                        *
* Element  Atom         Cartesian components (Eh/a)      *
* ------------------------------------------------------ *
*                       x            y            z      *
*                                                        *
*    Fe      1      0.00000948   0.00005695   0.00003282 *
*    O       2      0.00181330   0.00028373   0.00205734 *
*    O       3     -0.00181276  -0.00031675  -0.00208921 *
*    O       4     -0.00078126  -0.00240139   0.00096369 *
*    O       5      0.00077715   0.00246424  -0.00098937 *
*    O       6      0.00147658  -0.00157463  -0.00112104 *
*    O       7     -0.00149918   0.00157418   0.00113491 *
*    H       8     -0.00104375   0.00881663  -0.00025219 *
*    H       9     -0.00323236   0.00336585  -0.00727823 *
*    H      10     -0.00821620   0.00310388   0.00022252 *
*    H      11     -0.00618042  -0.00478016  -0.00353244 *
*    H      12     -0.00190908   0.00395646   0.00749807 *
*    H      13      0.00551783   0.00390862  -0.00524710 *
*    H      14      0.00325009  -0.00342589   0.00730276 *
*    H      15     -0.00550255  -0.00391644   0.00526148 *
*    H      16      0.00189394  -0.00392979  -0.00751734 *
*    H      17      0.00104084  -0.00884843   0.00022082 *
*    H      18      0.00619845   0.00476072   0.00354058 *
*    H      19      0.00819991  -0.00309778  -0.00020806 *
*                                                        *
**********************************************************
* TOTAL:            0.00000000  -0.00000000  -0.00000000 *
**********************************************************
 
 
***********************************************************
********** Summary of Forces (values in Eh/a) *************
*                                                         *
* ---------------------- Minimum ------------------------ *
* Atom:         1, |F|min =    0.00006641                 *
* Components:     Fx|min       Fy|min       Fz|min        *
*               0.00000948   0.00005695   0.00003282      *
*                                                         *
* ---------------------- Maximum ------------------------ *
* Atom:        17, |F|max =    0.00891218                 *
* Components:     Fx|max       Fy|max       Fz|max        *
*               0.00104084  -0.00884843   0.00022082      *
*                                                         *
* ---------------- Root Mean Square Force --------------- *
*                  |F|rms =    0.00707021                 *
* Components:     Fx|rms       Fy|rms       Fz|rms        *
*               0.00406991   0.00412011   0.00405566      *
***********************************************************
 

------------------------------ TIMING INFORMATION ------------------------------
AVERAGE TIME:    1857.112s on      6 proc(s)                                    
TOTAL TIME:      1857.112s on      6 proc(s)                                    
==================== AVERAGE TIMINGS FROM ALL PROCS (CUMULATIVE) =====================
|| TAG                                         #calls     cpu time   %total  Gflops ||
|| hubbard_species_proj                       :     1        0.00s   0.000%  ------ ||
|| hash_table_free                            :    32        0.00s   0.000%  ------ ||
|| hubbard_ngwf_on_grid                       :     1        0.00s   0.000%  ------ ||
|| hubbard_projector_character                :     1        0.00s   0.000%  ------ ||
|| linalg_invert_sym_matrix                   :     2        0.00s   0.000%  ------ || (1 procs only)
|| sparse_spam3toblacs_real_fast_imbal        :     6        0.00s   0.000%  ------ ||
|| hubbard_ngwf_select                        :     1        0.00s   0.000%  ------ ||
|| hubbard_tensorial_correction               :     2        0.00s   0.000%  ------ ||
|| sparse_spam3toblacs_real_fast_B2           :    36        0.00s   0.000%  ------ ||
|| sparse_blacstospam3_real_fast_imbal        :    24        0.00s   0.000%  ------ ||
|| ewald_calculate_forces_realspace           :     1        0.00s   0.000%  ------ ||
|| density_fftbox_interp_mult_imbal           :  4290        0.00s   0.000%  ------ ||
|| sparse_spam3toblacs_real_fast_B1           :    36        0.00s   0.000%  ------ ||
|| sparse_spam3toblacs_real_fast              :     6        0.00s   0.000%  ------ ||
|| linalg_dsyev_lt                            :   161        0.01s   0.001%  ------ || (1 procs only)
|| ewald_calculate_forces_recipspace          :     1        0.00s   0.000%  ------ ||
|| sparse_set_to_garbage                      :   472        0.00s   0.000%  ------ ||
|| ewald_calculate_energy                     :     1        0.00s   0.000%  ------ ||
|| ewald_calculate_forces                     :     1        0.00s   0.000%  ------ ||
|| sw_bessel_init_cpu                         :     1        0.02s   0.001%  ------ || (1 procs only)
|| sparse_blacstospam3_real_fast              :    24        0.01s   0.000%  ------ ||
|| sparse_init                                :     1        0.01s   0.001%  ------ ||
|| hubbard_projection_mtx                     :    34        0.01s   0.001%  ------ ||
|| paw_dij_hartree                            :   179        0.01s   0.001%  ------ ||
|| onetep.F90 main loop imbalance             :     1        0.01s   0.001%  ------ ||
|| linalg_dgemv                               :   104        0.03s   0.001%  ------ ||
|| basis_extract_function_from_box            :   522        0.04s   0.002%  ------ ||
|| sparse_embed_array_hotelling_invert        :    32        0.04s   0.002%  ------ ||
|| hubbard_ham_matrix                         :    82        0.05s   0.002%  ------ ||
|| hubbard_projector_ham                      :    81        0.06s   0.003%  ------ ||
|| augmentation_density_forces                :     1        0.07s   0.004%  ------ ||
|| palser_mano_kernel_optimise_spam3_embed    :     2        0.09s   0.005%  ------ ||
|| sw_init                                    :   337        0.09s   0.005%  ------ ||
|| pseudo_make_structure_factor               :     1        0.10s   0.005%  ------ ||
|| dense_eigensolve                           :     2        0.13s   0.007%  ------ ||
|| paw_tcore_density                          :     1        0.13s   0.007%  ------ ||
|| hubbard_calculate_forces                   :     1        0.15s   0.008%  ------ ||
|| nonsc_forces_ngwfs_calc                    :     1        0.19s   0.010%  ------ ||
|| paw_tcore_hartree_on_grid                  :     1        0.27s   0.015%  ------ ||
|| ngwfs_initialise_from_radial               :     2        0.30s   0.016%  ------ ||
|| hubbard_energy_total                       :   161        0.31s   0.017%  ------ ||
|| integrals_grad_spam3                       :     2        0.34s   0.018%  ------ ||
|| onetep.F90 final imbalance                 :     1        0.35s   0.019%  ------ ||
|| lnv_gradient_norm                          :    80        0.35s   0.019%  ------ ||
|| paw_sphere_density_on_grid                 :     1        0.40s   0.021%  ------ ||
|| paw_tcore_hartree_calc_forces              :     1        0.45s   0.024%  ------ ||
|| kernel_purify                              :   253        0.47s   0.025%  ------ ||
|| restart_kernel_write                       :    17        0.54s   0.029%  ------ ||
|| kernel_fix                                 :    80        0.67s   0.036%  ------ ||
|| function_ops_brappd_ketppd_spam3           :    66        0.72s   0.039%  ------ ||
|| sparse_trace                               :  7537        1.00s   0.054%  ------ ||
|| hubbard_projector_update                   :     1        1.22s   0.066%  ------ ||
|| projectors_func_grad_ovlp_box_spam3        :     3        1.45s   0.078%  ------ ||
|| aug_nl_calculate_forces                    :     1        1.64s   0.088%  ------ ||
|| paw_dataset_init                           :     3        1.83s   0.099%  ------ ||
|| restart_ngwfs_tightbox_output              :    15        1.86s   0.100%  ------ ||
|| sparse_product                             : 11964        2.05s   0.110%  ------ ||
|| paw_species_calc_proj_prec_mat             :     1        2.38s   0.128%  ------ ||
|| basis_copy_function_to_box                 :  4753        2.41s   0.130%  ------ ||
|| fourier_apply_box_pair                     :   671        2.43s   0.131% 122.154 ||
|| ngwf_gradient_coeffs                       :    16        2.90s   0.156%  ------ ||
|| paw_nlcc_calculate_forces                  :     1        3.27s   0.176%  ------ ||
|| basis_dot_function_with_box                : 116.3k       3.43s   0.185%  ------ ||
|| integrals_kinetic_spam3                    :    32        3.43s   0.185%  ------ ||
|| cell_grid_extract_box_real                 :  4346        4.17s   0.225%  ------ ||
|| basis_add_function_to_box                  : 185.9k       5.67s   0.305%  ------ ||
|| eigenstates_calculate                      :     1        6.86s   0.369%  ------ ||
|| density_fftbox_deposit_to_cell             :  4290        8.25s   0.444%  ------ ||
|| density_batch_row_sums                     :   330        8.73s   0.470%  ------ ||
|| energy_and_force_init_cell                 :     1        9.41s   0.507%  ------ ||
|| augmentation_screen_dij_spam3              :   171       10.93s   0.588%  ------ ||
|| cell_grid_deposit_box_real                 :  5950       11.32s   0.610%  ------ ||
|| forces_calculate                           :     1       14.42s   0.777%  ------ ||
|| density_init_guess_real                    :     2       17.61s   0.948%  ------ ||
|| fourier_filter                             :  1071       25.74s   1.386%  ------ ||
|| aug_nonlocal_mat_spam3_embed_array         :   162       28.07s   1.511%  ------ ||
|| projectors_func_ovlp_box_spam3             :    67       28.14s   1.515%  ------ ||
|| paw_dij_xc                                 :   179       30.69s   1.653%  ------ ||
|| integrals_locpot_mat_els_batch             :   180       31.43s   1.693%  ------ ||
|| fourier_interpolate                        :  1071       38.09s   2.051%  ------ ||
|| projectors_init_fftbox_recip               :   167       38.99s   2.099%  ------ ||
|| fourier_filter_cell                        :   212       41.63s   2.242%  17.469 ||
|| aug_density_on_grid_spam3                  :   165       43.95s   2.367%  ------ ||
|| hamiltonian_energy_components              :     4       46.04s   2.479%  ------ ||
|| hartree_on_grid_single                     :   164       54.58s   2.939%  ------ ||
|| fourier_interpolate_cell                   :   330       62.00s   3.339%  18.259 ||
|| fourier_interpolate_product                :  2695       82.99s   4.469%  ------ ||
|| projectors_grad_precond_batch              :    32       88.47s   4.764%  ------ ||
|| density_fftbox_interpolate_multiply        :  4290       89.92s   4.842%  ------ ||
|| properties_calculate                       :     1      104.03s   5.602%  ------ ||
|| fourier_apply_box                          : 18413      106.78s   5.750% 219.844 ||
|| potential_apply_to_ngwf_batch              :   180      128.41s   6.914%  ------ ||
|| integrals_locpot_dbl_grid                  :   180      159.92s   8.611%  ------ ||
|| projectors_gradient_batch                  :    64      160.08s   8.620%  ------ ||
|| density_batch_interp_deposit               :   330      204.51s  11.012%  ------ ||
|| density_on_dbl_grid                        :   330      218.40s  11.760%  ------ ||
|| fourier_apply_cell_forward                 :  1477      228.69s  12.314%  19.948 ||
|| fourier_apply_cell_backward                :  1477      239.18s  12.879%  19.074 ||
|| ngwf_gradient_build_batch                  :    32      323.51s  17.420%  ------ ||
|| ngwf_gradient_batch                        :    32      372.74s  20.071%  ------ ||
|| ngwf_gradient_lnv                          :    16      384.22s  20.689%  ------ ||
|| xc_energy_potential                        :   164      526.63s  28.357%  ------ ||
|| hamiltonian_lhxc_calculate                 :   158     1000.15s  53.855%  ------ ||
|| lnv_denskernel_optimise_cg                 :    16     1095.11s  58.968%  ------ ||
|| ngwf_cg_optimise                           :     1     1697.19s  91.389%  ------ ||
|| energy_and_forces                          :     1     1846.63s  99.436%  ------ ||
|| total_time                                 :     1     1857.11s 100.000%  ------ ||
======================================================================================
Overhead of generating timer report: 
- 0 ms averaging over threads,
- 0 ms ensuring consistency across MPI ranks,
- 1 ms printing in order.

Job completed: 28-06-2025 12:42 (+0100)

onetep_launcher: ONETEP seems to have finished correctly (zero exit code).
                 Brought to you by PID 220974 on nid002974.
