==================================================================================
It's Sat 28 Jun 2025 12:00:48 PM BST.
*** Starting onetep_launcher (node nid006527, PIDs 254455 254456 254457 254458 254459 254460)...
    - ONETEP arguments: Fe3_O_piv_6_H2O_3_HighSpin_NGWFSP.dat
    - Current directory: /mnt/lustre/a2fs-work3/work/e89/e89/phsmea/onetep_ali/Fe3_O_Piv_6_H2O_3/HS/sp
    - Launcher executable directory: /mnt/lustre/a2fs-work3/work/e89/e89/phsmea/onetep_ali
    - (-e) ONETEP executable specified through command-line: /work/e89/e89/phsmea/onetep.archer2_2024_cray_2
      ... trying /work/e89/e89/phsmea/onetep.archer2_2024_cray_2
          -> looks OK
*** Setting up environment...
    - (-s) Process stack size: unlimited
    - (-t) OMP_NUM_THREADS: 8
    - (-o) OMP_STACKSIZE: 64M
    - (-c) Maximum core file size: 2048000
    - (-d) decfort_dump_flag: n
    - (-m) I_MPI_OFA_TRANSLATION_CACHE: 0
    - (-m) I_MPI_DAPL_TRANSLATION_CACHE: 0
    - (-m) I_MPI_DAPL_UD_TRANSLATION_CACHE: 0
*** Starting ONETEP...
    - /work/e89/e89/phsmea/onetep.archer2_2024_cray_2 Fe3_O_piv_6_H2O_3_HighSpin_NGWFSP.dat
=================================================================================
_________________________________________________________________________________
 +---------------------------------------------------------------+
 |                                                               |
 |        ####### #     # ####### ####### ####### ######         |
 |        #     # ##    # #          #    #       #     #        |
 |        #     # # #   # #          #    #       #     #        |
 |        #     # #  #  # #####      #    #####   ######         |
 |        #     # #   # # #          #    #       #              |
 |        #     # #    ## #          #    #       #              |
 |        ####### #     # #######    #    ####### #              |
 |                                                               |
 |        Linear-Scaling Ab Initio Total Energy Program          |
 |                                                               |
 |          Release for academic collaborators of ODG            |
 |                                             Version 7.3.0     |
 | Remote: git@github.com:Miesaz/onetep_mea.git                  |
 | Local branch: master                                          |
 | Commit ID: 4af45e89288c8df5499704252eec3e032ee3d0c8           |
 | Date: Tue Aug 6 11:28:44 2024 +0100                           |
 | Locally modified files:                                       |
 |   src/hubbard_build_mod.F90                                   |
 |   src/services_mod.F90                                        |
 |                                                               |
 +---------------------------------------------------------------+
 |                                                               |
 |  Authors:                                                     |
 |  Jacek Dziedzic, Peter D. Haynes, Nicholas D. M. Hine,        |
 |  Arash A. Mostofi, Mike C. Payne and Chris-Kriton Skylaris    |
 |                                                               |
 |  Contributors:                                                |
 |  J. Aarons, L. Andrinopoulos, P. W. Avraam, R. A. Bell,       |
 |  A. Bhandari, G. A. Bramley, R. J. Charlton, S. J. Clark,     |
 |  R. J. Clements, G. C. Constantinescu, F. Corsetti,           |
 |  N. Corsini, O. Dieguez, S. M. M. Dubois, K. K. B. Duff,      |
 |  J. M. Escartin, M. Escobar Azor, A. Greco,                   |
 |  H. Helal, Q. O. Hill, L. P. Lee, J.-H. Li,                   |
 |  T. Li, E. B. Linscott, G. Moynihan, D. D. O`Regan,           |
 |  O. K. Okan, E. Parkinson, M. J. S. Phipps,                   |
 |  C. J. Pickard, J. C. A. Prentice, M. I. J. Probert,          |
 |  L. E. Ratcliff, M. Robinson, A. Ruiz Serrano,                |
 |  M. dos Santos Dias, J. S. Spencer, E. W. Tait,               |
 |  G. Teobaldi, D. Turban, V. Vitale, K. A. Wilkinson,          |
 |  C. Weber, J. C. Womack, Chengcheng Xiao, N. Yeung,           |
 |  and T. J. Zuehlsdorff.                                       |
 |                                                               |
 |                                   Copyright (c) 2004-2025     |
 |                                                               |
 |  Please cite:                                                 |
 |  "The ONETEP linear-scaling density functional theory program"|
 |   J. Chem. Phys. 152(17) 174111 (2020)                        |
 |                                                               |
 |          in all publications arising from your use of ONETEP. |
 |                                                               |
 +---------------------------------------------------------------+
 |                                                               |
 |   ONETEP is based on developments described in the following  |
 |   publications:                                               |
 |                                                               |
 |  "Nonorthogonal generalized Wannier function pseudopotential  |
 |   plane-wave method".                                         |
 |   C.-K. Skylaris, A. A. Mostofi, P. D. Haynes, O. Dieguez,    |
 |   M. C. Payne.                                                |
 |   Phys. Rev. B 66 035119 (2002).                              |
 |                                                               |
 |  "Preconditioned iterative minimization for linear-scaling    |
 |   electronic structure calculations".                         |
 |   A. A. Mostofi, P. D. Haynes, C.-K. Skylaris, M. C. Payne.   |
 |   J. Chem. Phys. 119(17), pp.8842-8848 (2003).                |
 |                                                               |
 |  "Total-energy calculations on a real space grid with         |
 |   localized functions and a plane-wave basis".                |
 |   A. A. Mostofi, C.-K. Skylaris, P. D. Haynes, M. C. Payne.   |
 |   Comput. Phys. Commun. 147, pp.788-802 (2002).               |
 |                                                               |
 |  "Accurate kinetic energy evaluation in electronic structure  |
 |   calculations with localized functions on real space grids"  |
 |   C.-K. Skylaris, A. A. Mostofi, P. D. Haynes, C. J. Pickard, |
 |   M. C. Payne.                                                |
 |   Comput. Phys. Commun. 140, pp.315-322 (2001).               |
 |                                                               |
 |  "Accurate ionic forces and geometry optimization in linear-  |
 |   scaling density-functional theory with local orbitals"      |
 |   N. D. M. Hine, M. Robinson, P. D. Haynes, C.-K. Skylaris,   |
 |   M. C. Payne, and A. A. Mostofi.                             |
 |   Phys. Rev. B 83 195102 (2011).                              |
 |                                                               |
 +---------------------------------------------------------------+

Job started: 28-06-2025 12:00 (+0100)
 
Reading parameters from file "Fe3_O_piv_6_H2O_3_HighSpin_NGWFSP.dat" ...... done

If your calculation crashes here, before "Checking processes and threads..."
is displayed, then your stack size is insufficient.
If so, use "ulimit -s unlimited" at runtime.
You can disable this check with "check_stack_size F".

Checking processes and threads...
   Determining the default number of threads...
      No default threads set at compilation time: defaulting to 1.
      OpenMP library call suggests 8 threads.
      Hybrid MPI-OpenMP compilation detected.
      Number of MPI processes > 1.
      OMP_NUM_THREADS environment variable present and
      its value matches the one obtained from the OpenMP library call.
      Using this value as default.
      Default threads: 8
      Default applies to threads_max and threads_num_fftboxes.
      Settings in the input file override this default.
   ... done

   Running with 6 MPI processes.
   There are 6 MPI processes running on the same node as the root process.
   Each MPI process is using: 
               1 threads for simulation cell FFTs.
               1 threads for threaded FFT box operations.
               8 threads for loops over batched FFT box operations.
               8 threads in other parallel regions.
   MPI Interface: S1 (use mpi_f08) (-DMPI -DUSE_MPI_F08).
   MPI_ASYNC_PROTECTS_NONBLOCKING: Yes. MPI_SUBARRAYS_SUPPORTED: Yes.
   FFTW Interface: OMP-capable and MODERN. (-DUSE_MODERN_FFTW specified).
   GPU Interface: None.
   GPU FFT Backend: None.
... done

Basic input checks...... done

Reading geometry and species blocks from file "Fe3_O_piv_6_H2O_3_HighSpin_NGWFSP.dat" ...
  <species_atomic_set> block not found: NGWF initialisation set to SOLVE
    
  Number of PPD points along a3 set to 1.  This is 
  the default value, it may have been provided also in the input file.
... done


--------------------------------------------------------------------------------
---------------------------------- INPUT FILE ----------------------------------
--------------------------------------------------------------------------------

charge : 1                                                                      
cutoff_energy : 800 eV                                                          
do_properties : T                                                               
edft : F                                                                        
fine_grid_scale : 4                                                             
forces_output_detail : VERBOSE                                                  
output_detail : VERBOSE                                                         
paw : T                                                                         
pseudo_path : ../../..                                                          
spin : 15                                                                       
task : SINGLEPOINT                                                              
write_denskern : T                                                              
write_forces : T                                                                
write_tightbox_ngwfs : T                                                        
xc_functional : pbe                                                             
ngwfs_spin_polarized : T                                                        
%BLOCK HUBBARD                                                                  
Fe 2 4.0 0 -10 0 0                                                              
%ENDBLOCK HUBBARD                                                               
%BLOCK LATTICE_CART                                                             
ang                                                                             
32.50833397       0.00000000       0.00000000                                   
0.00000000      31.98669797       0.00000000                                    
0.00000000       0.00000000      30.19651969                                    
%ENDBLOCK LATTICE_CART                                                          
%BLOCK POSITIONS_ABS                                                            
ang                                                                             
Fe    17.359051    14.728666    15.390070                                       
Fe    16.445998    16.166781    12.566758                                       
Fe    15.006795    17.034042    15.407719                                       
O    16.261370    15.969840    14.450271                                        
O    18.679788    13.306069    16.346460                                        
H    18.864125    12.607263    15.707430                                        
H    19.521598    13.722892    16.562878                                        
O    16.571234    16.527857    10.433985                                        
H    16.562755    17.488045    10.333527                                        
H    15.777844    16.194233    10.000000                                        
O    13.591243    18.174076    16.592086                                        
H    13.222494    17.567365    17.245664                                        
H    14.054598    18.864349    17.079474                                        
O    19.072659    15.411941    14.531216                                        
O    18.426335    16.359677    12.623950                                        
O    17.274902    13.253516    14.014396                                        
O    16.577272    14.216448    12.134273                                        
O    16.302639    18.207917    12.552697                                        
O    15.421128    18.767801    14.517443                                        
O    14.457052    16.054950    12.205048                                        
O    13.514753    16.656399    14.130483                                        
O    16.313026    17.565855    16.878604                                        
O    17.787052    15.900408    16.955004                                        
O    14.334150    15.544356    16.602961                                        
O    15.825122    13.906780    16.378393                                        
C    19.297999    16.081171    13.491134                                        
C    20.705550    16.616684    13.248282                                        
C    21.170229    16.160075    11.863320                                        
H    20.485195    16.497496    11.085394                                        
H    21.245394    15.071152    11.807484                                        
H    22.159888    16.573720    11.657677                                        
C    20.615132    18.147108    13.280787                                        
H    19.920313    18.514102    12.524358                                        
H    21.600872    18.572445    13.080025                                        
H    20.287862    18.507026    14.259935                                        
C    21.675129    16.129226    14.316056                                        
H    21.755889    15.040436    14.315333                                        
H    21.367074    16.447648    15.313390                                        
H    22.668653    16.538240    14.120337                                        
C    16.935263    13.212402    12.800150                                        
C    16.912590    11.848598    12.119375                                        
C    15.558466    11.220941    12.481349                                        
H    14.729685    11.826211    12.107276                                        
H    15.451375    11.109344    13.562304                                        
H    15.485477    10.230414    12.026875                                        
C    18.043550    10.972123    12.651697                                        
H    19.021484    11.417858    12.453064                                        
H    18.015382    10.000000    12.155319                                        
H    17.947309    10.804149    13.724898                                        
C    17.029237    11.998937    10.606784                                        
H    17.967286    12.481891    10.324631                                        
H    16.209712    12.591448    10.200464                                        
H    17.003572    11.012307    10.139343                                        
C    15.912013    19.057972    13.393229                                        
C    16.018183    20.540411    13.050046                                        
C    16.702609    20.750745    11.706241                                        
H    16.790770    21.820565    11.505940                                        
H    16.128621    20.307187    10.889998                                        
H    17.705640    20.320762    11.694748                                        
C    14.593844    21.105573    13.008262                                        
H    14.632597    22.172223    12.777137                                        
H    14.089196    20.978361    13.966572                                        
H    13.994500    20.617591    12.235214                                        
C    16.817038    21.231384    14.158801                                        
H    16.867996    22.303316    13.956366                                        
H    17.840547    20.850946    14.206951                                        
H    16.348627    21.084549    15.132100                                        
C    13.453052    16.240006    12.946254                                        
C    12.082793    15.911869    12.361373                                        
C    12.029622    14.389225    12.180908                                        
H    11.071265    14.109381    11.737984                                        
H    12.118319    13.872725    13.139969                                        
H    12.828231    14.041669    11.523459                                        
C    11.943985    16.596639    11.000798                                        
H    10.972970    16.348722    10.567177                                        
H    12.719302    16.267012    10.308433                                        
H    12.000096    17.684076    11.094169                                        
C    10.966474    16.365059    13.292649                                        
H    10.000000    16.114584    12.849797                                        
H    10.996033    17.443337    13.458629                                        
H    11.033279    15.875529    14.264981                                        
C    17.315911    16.991011    17.374687                                        
C    17.971220    17.631145    18.594770                                        
C    17.954097    19.152205    18.463913                                        
H    18.525180    19.484518    17.593705                                        
H    18.404380    19.600136    19.352197                                        
H    16.937666    19.533406    18.366667                                        
C    17.125206    17.204026    19.802924                                        
H    17.113027    16.117352    19.915066                                        
H    16.095955    17.557444    19.711806                                        
H    17.550248    17.631690    20.713652                                        
C    19.401219    17.132868    18.769815                                        
H    19.847669    17.607725    19.646050                                        
H    20.018613    17.378360    17.902819                                        
H    19.432604    16.052948    18.915927                                        
C    14.738641    14.366389    16.810659                                        
C    13.825602    13.430275    17.594164                                        
C    12.824010    12.870095    16.573101                                        
H    12.129316    12.197336    17.080734                                        
H    13.333651    12.302513    15.791026                                        
H    12.245711    13.670580    16.106880                                        
C    13.077271    14.202575    18.678231                                        
H    12.436463    13.516679    19.236125                                        
H    12.444863    14.981422    18.251032                                        
H    13.767310    14.665305    19.388415                                        
C    14.623350    12.289111    18.214296                                        
H    13.944560    11.617526    18.744269                                        
H    15.359394    12.659043    18.931469                                        
H    15.153904    11.713816    17.455991                                        
%ENDBLOCK POSITIONS_ABS                                                         
%BLOCK SPECIES                                                                  
C C 6 -1 10.0                                                                   
Fe Fe 26 -1 10.0                                                                
H H 1 -1 10.0                                                                   
O O 8 -1 10.0                                                                   
%ENDBLOCK SPECIES                                                               
%BLOCK SPECIES_POT                                                              
C C.PBE-paw.abinit                                                              
Fe Fe.PBE-paw.abinit                                                            
H H.PBE-paw.abinit                                                              
O O.PBE-paw.abinit                                                              
%ENDBLOCK SPECIES_POT                                                           

--------------------------------------------------------------------------------
-------------------------------- END INPUT FILE --------------------------------
--------------------------------------------------------------------------------


 
 ESDF WARNING(1): "charge" (esdf_physical) has no units. Assume "e".
<<<<<<<<<<<<<<<<<<<<<<<<<<<<<<<<< Full system >>>>>>>>>>>>>>>>>>>>>>>>>>>>>>>>>>
<<<<<<<<<<<<<<<<<<<<<<<<<<< PAW Dataset information >>>>>>>>>>>>>>>>>>>>>>>>>>>
File: Fe.PBE-paw.abinit; rc = 2.12 bohr; shape type =  2; rshape = 1.81 bohr;
  Atomic number: 26;  ionic charge: 16.000000
    Partial Wave 1: l = 0
    Partial Wave 2: l = 0
    Partial Wave 3: l = 1
    Partial Wave 4: l = 1
    Partial Wave 5: l = 2
    Partial Wave 6: l = 2
  Core charge supplied for Nonlinear Core Corrections
File: O.PBE-paw.abinit; rc = 1.41 bohr; shape type =  2; rshape = 1.20 bohr;
  Atomic number:  8;  ionic charge:  6.000000
    Partial Wave 1: l = 0
    Partial Wave 2: l = 0
    Partial Wave 3: l = 1
    Partial Wave 4: l = 1
  Core charge supplied for Nonlinear Core Corrections
File: H.PBE-paw.abinit; rc = 0.90 bohr; shape type =  2; rshape = 0.80 bohr;
  Atomic number:  1;  ionic charge:  1.000000
    Partial Wave 1: l = 0
    Partial Wave 2: l = 0
    Partial Wave 3: l = 1
File: C.PBE-paw.abinit; rc = 1.51 bohr; shape type =  2; rshape = 1.30 bohr;
  Atomic number:  6;  ionic charge:  4.000000
    Partial Wave 1: l = 0
    Partial Wave 2: l = 0
    Partial Wave 3: l = 1
    Partial Wave 4: l = 1
  Core charge supplied for Nonlinear Core Corrections
<<<<<<<<<<<<<<<<<<<<<<<<<<<<<<<<<<<<<<< >>>>>>>>>>>>>>>>>>>>>>>>>>>>>>>>>>>>>>>

-------------------------- Atom counting information ---------------------------
Symbol    Natoms    Nngwfs    Nprojs
  Fe         3        39        54
  O         16        64       128
  H         60        60       300
  C         30       120       240
.......   ......    ......    ......
Totals:    109       283       722
--------------------------------------------------------------------------------

=============================== PSINC grid sizes ===============================
                      Simulation cell:  125 x 125 x 117
                              FFT-box:  125 x 125 x 117
                                  PPD:    5 x   5 x   1
Grid space d1=  0.491454786359a0 (KE cutoff=  31.45117Eh = 855.83000eV)
Grid space d2=  0.483568792904a0 (KE cutoff=  32.48534Eh = 883.97119eV)
Grid space d3=  0.487719251553a0 (KE cutoff=  31.93480Eh = 868.99013eV)
================================================================================

********************* Fourier parallelisation information **********************
       Coarse grid (whole simulation cell) dimensions:    125   125   117
          Real-space ('12') slabs/proc (min max mean):     19    20    19
         Recip-space ('23') slabs/proc (min max mean):     10    11    10
********************************************************************************

********************* Fourier parallelisation information **********************
       Double grid (whole simulation cell) dimensions:    250   250   234
          Real-space ('12') slabs/proc (min max mean):     39    39    39
         Recip-space ('23') slabs/proc (min max mean):     21    21    21
********************************************************************************

********************* Fourier parallelisation information **********************
         Fine grid (whole simulation cell) dimensions:    500   500   468
          Real-space ('12') slabs/proc (min max mean):     78    78    78
         Recip-space ('23') slabs/proc (min max mean):     41    42    41
********************************************************************************

Atom SCF Calculation for C  : Z (AE atom) =   6 : Z (PS atom) =   4
Config String: 2s2.0 2p2.0
Orbitals (num,occ):  2     2.00 2.00
Orbitals   (num,l):  2        0    1
Real-space Grid (nr,dr,rmax): 1503    0.0066577896   10.0000000000
Spherical Bessel Basis (nsws,lmax,cutoff):   37    2  176.3967570603
Confining potential (l,width,scale):  0    3.0000000000  100.0000000000
Confining potential (l,width,scale):  1    3.0000000000  100.0000000000
  1         -5.4381308884   -1.2721298092    4.5135250045   -1.9381135692
  2         -5.3849331102   -1.3649505469    4.4159511708   -1.9005879768
  3         -5.3930021612   -1.3849430624    4.3947033354   -1.8924421815
  4         -5.4001802281   -1.3891927246    4.3902388137   -1.8907518289
  5         -5.4037205329   -1.3915457087    4.3877695258   -1.8898885469
  6         -5.4055416859   -1.3928069742    4.3864477540   -1.8894519912
  7         -5.4065002767   -1.3934742451    4.3857498837   -1.8892319620
  8         -5.4070074727   -1.3938267709    4.3853820092   -1.8891207968
  9         -5.4072763209   -1.3940130896    4.3851880206   -1.8890645345
 10         -5.4074189962   -1.3941116277    4.3850856600   -1.8890360408
 11         -5.4074947717   -1.3941637823    4.3850316039   -1.8890216105
 12         -5.4075350443   -1.3941914082    4.3850030336   -1.8890143059
 13         -5.4075564617   -1.3942060527    4.3849879208   -1.8890106114
 14         -5.4075678586   -1.3942138217    4.3849799198   -1.8890087446
 15         -5.4075739267   -1.3942179465    4.3849756804   -1.8890078024
 16         -5.4075771595   -1.3942201380    4.3849734321   -1.8890073276
 17         -5.4075788827   -1.3942213034    4.3849722389   -1.8890070886
 18         -5.4075798017   -1.3942219235    4.3849716050   -1.8890069685
 19         -5.4075802921   -1.3942222537    4.3849712680   -1.8890069082
 20         -5.4075805539   -1.3942224296    4.3849710888   -1.8890068781
 21         -5.4075806938   -1.3942225235    4.3849709933   -1.8890068630
 22         -5.4075807686   -1.3942225735    4.3849709424   -1.8890068555
Atom SCF converged after  22 iterations to a total energy of     -5.40758077

Atom SCF Calculation for Fe : Z (AE atom) =  26 : Z (PS atom) =  16
Config String: 3s2.0 3p6.0 3d6.0 4s2.0 4p0.0
Orbitals (num,occ):  5     2.00 6.00 6.00 2.00 0.00
Orbitals   (num,l):  5        0    1    2    0    1
Real-space Grid (nr,dr,rmax): 1503    0.0066577896   10.0000000000
Spherical Bessel Basis (nsws,lmax,cutoff):   37    4  176.3967570603
Confining potential (l,width,scale):  0    3.0000000000  100.0000000000
Confining potential (l,width,scale):  1    3.0000000000  100.0000000000
Confining potential (l,width,scale):  2    3.0000000000  100.0000000000
  1       -111.4005172118  -52.5575611559   72.2164000725   -4.0901868950
  2       -116.6635475262  -20.5601904919   91.7007084249   -2.2962490369
  3       -121.6156136875  -23.2753453277   92.4544705195   -2.7706732816
  4       -123.0066153699  -21.4164712440   94.7136519632   -2.9394413820
  5       -123.8168122141  -22.6370400734   94.1384349420   -3.0798102909
  6       -123.9055073486  -21.7222843370   94.9342614757   -3.0846520419
  7       -124.0956886241  -22.4138747628   94.4617720360   -3.1224050559
  8       -124.0492758687  -21.8887017510   94.8692044073   -3.1096545890
  9       -124.1222324005  -22.2877514631   94.5777385101   -3.1254730624
 10       -124.0894611846  -22.0431086758   94.7620026738   -3.1177312036
 11       -124.1066906466  -22.1417456915   94.6895757605   -3.1215019185
 12       -124.1027421480  -22.1090398813   94.7144439268   -3.1205307857
 13       -124.1039552528  -22.1131641559   94.7116547863   -3.1207645739
 14       -124.1041718268  -22.1127261003   94.7121170471   -3.1207931979
 15       -124.1043563153  -22.1126782042   94.7122440208   -3.1208211382
 16       -124.1044853288  -22.1126702816   94.7123114748   -3.1208409484
 17       -124.1045734258  -22.1126674103   94.7123551926   -3.1208545095
 18       -124.1046334193  -22.1126657134   94.7123845864   -3.1208637603
 19       -124.1046742816  -22.1126645462   94.7124045128   -3.1208700757
 20       -124.1047021281  -22.1126636961   94.7124180731   -3.1208743926
 21       -124.1047211147  -22.1126630559   94.7124273290   -3.1208773473
 22       -124.1047340666  -22.1126625637   94.7124336643   -3.1208793718
 23       -124.1047429056  -22.1126621807   94.7124380116   -3.1208807606
 24       -124.1047489402  -22.1126618812   94.7124410017   -3.1208817142
 25       -124.1047530616  -22.1126616468   94.7124430628   -3.1208823696
 26       -124.1047558771  -22.1126614637   94.7124444863   -3.1208828204
 27       -124.1047578011  -22.1126613212   94.7124454714   -3.1208831306
 28       -124.1047591161  -22.1126612109   94.7124461541   -3.1208833444
 29       -124.1047600152  -22.1126611259   94.7124466281   -3.1208834917
 30       -124.1047606300  -22.1126610607   94.7124469575   -3.1208835933
 31       -124.1047610504  -22.1126610110   94.7124471869   -3.1208836634
 32       -124.1047613380  -22.1126609733   94.7124473467   -3.1208837118
 33       -124.1047615347  -22.1126609447   94.7124474583   -3.1208837453
 34       -124.1047616693  -22.1126609232   94.7124475361   -3.1208837684
 35       -124.1047617614  -22.1126609071   94.7124475906   -3.1208837843
Atom SCF converged after  35 iterations to a total energy of   -124.10476176

Atom SCF Calculation for H  : Z (AE atom) =   1 : Z (PS atom) =   1
Config String: 1s1.0
Orbitals (num,occ):  1     1.00
Orbitals   (num,l):  1        0
Real-space Grid (nr,dr,rmax): 1503    0.0066577896   10.0000000000
Spherical Bessel Basis (nsws,lmax,cutoff):   37    2  176.3967570603
Confining potential (l,width,scale):  0    3.0000000000  100.0000000000
  1         -0.3348525927   -0.2401819449    0.2820953128   -0.2388448411
  2         -0.4038948821   -0.2405504229    0.2866889240   -0.2416217444
  3         -0.4360732773   -0.2390089543    0.2890729861   -0.2443653791
  4         -0.4497314704   -0.2383264046    0.2899315599   -0.2456060208
  5         -0.4551901081   -0.2381357631    0.2901452306   -0.2460489407
  6         -0.4573594294   -0.2381000300    0.2901742710   -0.2461947705
  7         -0.4582326910   -0.2381004501    0.2901659451   -0.2462415077
  8         -0.4585900702   -0.2381055523    0.2901559649   -0.2462564278
  9         -0.4587384807   -0.2381092319    0.2901497571   -0.2462612174
 10         -0.4588008132   -0.2381112609    0.2901465144   -0.2462627659
 11         -0.4588272086   -0.2381122698    0.2901449456   -0.2462632682
 12         -0.4588384507   -0.2381127465    0.2901442163   -0.2462634302
 13         -0.4588432580   -0.2381129655    0.2901438848   -0.2462634814
 14         -0.4588453195   -0.2381130645    0.2901437362   -0.2462634968
 15         -0.4588462053   -0.2381131088    0.2901436700   -0.2462635011
 16         -0.4588465865   -0.2381131284    0.2901436407   -0.2462635020
 17         -0.4588467508   -0.2381131372    0.2901436278   -0.2462635020
 18         -0.4588468216   -0.2381131410    0.2901436222   -0.2462635019
Atom SCF converged after  18 iterations to a total energy of     -0.45884682

Atom SCF Calculation for O  : Z (AE atom) =   8 : Z (PS atom) =   6
Config String: 2s2.0 2p4.0
Orbitals (num,occ):  2     2.00 4.00
Orbitals   (num,l):  2        0    1
Real-space Grid (nr,dr,rmax): 1503    0.0066577896   10.0000000000
Spherical Bessel Basis (nsws,lmax,cutoff):   37    2  176.3967570603
Confining potential (l,width,scale):  0    3.0000000000  100.0000000000
Confining potential (l,width,scale):  1    3.0000000000  100.0000000000
  1         -8.3209332552   -7.4828484739   10.1554312602   -2.1270270195
  2        -15.1405599232   -3.0474882742   13.6590820486   -2.5134754209
  3        -15.5174094640   -3.1101891961   13.6243211040   -2.6472956001
  4        -15.7606118231   -3.0805775314   13.6668776248   -2.7100307789
  5        -15.8308896490   -3.0881936416   13.6633910567   -2.7338682066
  6        -15.8678540393   -3.0862312957   13.6673103078   -2.7443897972
  7        -15.8801393942   -3.0873360689   13.6669183555   -2.7485230919
  8        -15.8859601688   -3.0872977830   13.6672813272   -2.7502957173
  9        -15.8880580832   -3.0874730763   13.6672320183   -2.7510066526
 10        -15.8889924584   -3.0874981416   13.6672623218   -2.7513066537
 11        -15.8893459980   -3.0875277929   13.6672548500   -2.7514284384
 12        -15.8894977936   -3.0875355600   13.6672566096   -2.7514793465
 13        -15.8895569380   -3.0875407304   13.6672553199   -2.7515001537
 14        -15.8895817884   -3.0875424467   13.6672552475   -2.7515088021
 15        -15.8895916441   -3.0875433561   13.6672550136   -2.7515123499
 16        -15.8895957327   -3.0875436929   13.6672549605   -2.7515138192
 17        -15.8895973717   -3.0875438525   13.6672549179   -2.7515144231
 18        -15.8895980466   -3.0875439149   13.6672549044   -2.7515146726
 19        -15.8895983189   -3.0875439428   13.6672548968   -2.7515147752
 20        -15.8895984306   -3.0875439540   13.6672548940   -2.7515148175
 21        -15.8895984758   -3.0875439588   13.6672548927   -2.7515148349
Atom SCF converged after  21 iterations to a total energy of    -15.88959848

Atom SCF Calculation for C  : Z (AE atom) =   6 : Z (PS atom) =   4
Config String: 2s2.0 2p2.0
Orbitals (num,occ):  2     2.00 2.00
Orbitals   (num,l):  2        0    1
Real-space Grid (nr,dr,rmax): 1503    0.0066577896   10.0000000000
Spherical Bessel Basis (nsws,lmax,cutoff):   37    2  176.3967570603
Confining potential (l,width,scale):  0    3.0000000000  100.0000000000
Confining potential (l,width,scale):  1    3.0000000000  100.0000000000
  1         -5.4381308884   -1.2721298092    4.5135250045   -1.9381135692
  2         -5.3849331102   -1.3649505469    4.4159511708   -1.9005879768
  3         -5.3930021612   -1.3849430624    4.3947033354   -1.8924421815
  4         -5.4001802281   -1.3891927246    4.3902388137   -1.8907518289
  5         -5.4037205329   -1.3915457087    4.3877695258   -1.8898885469
  6         -5.4055416859   -1.3928069742    4.3864477540   -1.8894519912
  7         -5.4065002767   -1.3934742451    4.3857498837   -1.8892319620
  8         -5.4070074727   -1.3938267709    4.3853820092   -1.8891207968
  9         -5.4072763209   -1.3940130896    4.3851880206   -1.8890645345
 10         -5.4074189962   -1.3941116277    4.3850856600   -1.8890360408
 11         -5.4074947717   -1.3941637823    4.3850316039   -1.8890216105
 12         -5.4075350443   -1.3941914082    4.3850030336   -1.8890143059
 13         -5.4075564617   -1.3942060527    4.3849879208   -1.8890106114
 14         -5.4075678586   -1.3942138217    4.3849799198   -1.8890087446
 15         -5.4075739267   -1.3942179465    4.3849756804   -1.8890078024
 16         -5.4075771595   -1.3942201380    4.3849734321   -1.8890073276
 17         -5.4075788827   -1.3942213034    4.3849722389   -1.8890070886
 18         -5.4075798017   -1.3942219235    4.3849716050   -1.8890069685
 19         -5.4075802921   -1.3942222537    4.3849712680   -1.8890069082
 20         -5.4075805539   -1.3942224296    4.3849710888   -1.8890068781
 21         -5.4075806938   -1.3942225235    4.3849709933   -1.8890068630
 22         -5.4075807686   -1.3942225735    4.3849709424   -1.8890068555
Atom SCF converged after  22 iterations to a total energy of     -5.40758077

Atom SCF Calculation for Fe : Z (AE atom) =  26 : Z (PS atom) =  16
Config String: 3s2.0 3p6.0 3d6.0 4s2.0 4p0.0
Orbitals (num,occ):  5     2.00 6.00 6.00 2.00 0.00
Orbitals   (num,l):  5        0    1    2    0    1
Real-space Grid (nr,dr,rmax): 1503    0.0066577896   10.0000000000
Spherical Bessel Basis (nsws,lmax,cutoff):   37    4  176.3967570603
Confining potential (l,width,scale):  0    3.0000000000  100.0000000000
Confining potential (l,width,scale):  1    3.0000000000  100.0000000000
Confining potential (l,width,scale):  2    3.0000000000  100.0000000000
  1       -111.4005172118  -52.5575611559   72.2164000725   -4.0901868950
  2       -116.6635475262  -20.5601904919   91.7007084249   -2.2962490369
  3       -121.6156136875  -23.2753453277   92.4544705195   -2.7706732816
  4       -123.0066153699  -21.4164712440   94.7136519632   -2.9394413820
  5       -123.8168122141  -22.6370400734   94.1384349420   -3.0798102909
  6       -123.9055073486  -21.7222843370   94.9342614757   -3.0846520419
  7       -124.0956886241  -22.4138747628   94.4617720360   -3.1224050559
  8       -124.0492758687  -21.8887017510   94.8692044073   -3.1096545890
  9       -124.1222324005  -22.2877514631   94.5777385101   -3.1254730624
 10       -124.0894611846  -22.0431086758   94.7620026738   -3.1177312036
 11       -124.1066906466  -22.1417456915   94.6895757605   -3.1215019185
 12       -124.1027421480  -22.1090398813   94.7144439268   -3.1205307857
 13       -124.1039552528  -22.1131641559   94.7116547863   -3.1207645739
 14       -124.1041718268  -22.1127261003   94.7121170471   -3.1207931979
 15       -124.1043563153  -22.1126782042   94.7122440208   -3.1208211382
 16       -124.1044853288  -22.1126702816   94.7123114748   -3.1208409484
 17       -124.1045734258  -22.1126674103   94.7123551926   -3.1208545095
 18       -124.1046334193  -22.1126657134   94.7123845864   -3.1208637603
 19       -124.1046742816  -22.1126645462   94.7124045128   -3.1208700757
 20       -124.1047021281  -22.1126636961   94.7124180731   -3.1208743926
 21       -124.1047211147  -22.1126630559   94.7124273290   -3.1208773473
 22       -124.1047340666  -22.1126625637   94.7124336643   -3.1208793718
 23       -124.1047429056  -22.1126621807   94.7124380116   -3.1208807606
 24       -124.1047489402  -22.1126618812   94.7124410017   -3.1208817142
 25       -124.1047530616  -22.1126616468   94.7124430628   -3.1208823696
 26       -124.1047558771  -22.1126614637   94.7124444863   -3.1208828204
 27       -124.1047578011  -22.1126613212   94.7124454714   -3.1208831306
 28       -124.1047591161  -22.1126612109   94.7124461541   -3.1208833444
 29       -124.1047600152  -22.1126611259   94.7124466281   -3.1208834917
 30       -124.1047606300  -22.1126610607   94.7124469575   -3.1208835933
 31       -124.1047610504  -22.1126610110   94.7124471869   -3.1208836634
 32       -124.1047613380  -22.1126609733   94.7124473467   -3.1208837118
 33       -124.1047615347  -22.1126609447   94.7124474583   -3.1208837453
 34       -124.1047616693  -22.1126609232   94.7124475361   -3.1208837684
 35       -124.1047617614  -22.1126609071   94.7124475906   -3.1208837843
Atom SCF converged after  35 iterations to a total energy of   -124.10476176

Atom SCF Calculation for H  : Z (AE atom) =   1 : Z (PS atom) =   1
Config String: 1s1.0
Orbitals (num,occ):  1     1.00
Orbitals   (num,l):  1        0
Real-space Grid (nr,dr,rmax): 1503    0.0066577896   10.0000000000
Spherical Bessel Basis (nsws,lmax,cutoff):   37    2  176.3967570603
Confining potential (l,width,scale):  0    3.0000000000  100.0000000000
  1         -0.3348525927   -0.2401819449    0.2820953128   -0.2388448411
  2         -0.4038948821   -0.2405504229    0.2866889240   -0.2416217444
  3         -0.4360732773   -0.2390089543    0.2890729861   -0.2443653791
  4         -0.4497314704   -0.2383264046    0.2899315599   -0.2456060208
  5         -0.4551901081   -0.2381357631    0.2901452306   -0.2460489407
  6         -0.4573594294   -0.2381000300    0.2901742710   -0.2461947705
  7         -0.4582326910   -0.2381004501    0.2901659451   -0.2462415077
  8         -0.4585900702   -0.2381055523    0.2901559649   -0.2462564278
  9         -0.4587384807   -0.2381092319    0.2901497571   -0.2462612174
 10         -0.4588008132   -0.2381112609    0.2901465144   -0.2462627659
 11         -0.4588272086   -0.2381122698    0.2901449456   -0.2462632682
 12         -0.4588384507   -0.2381127465    0.2901442163   -0.2462634302
 13         -0.4588432580   -0.2381129655    0.2901438848   -0.2462634814
 14         -0.4588453195   -0.2381130645    0.2901437362   -0.2462634968
 15         -0.4588462053   -0.2381131088    0.2901436700   -0.2462635011
 16         -0.4588465865   -0.2381131284    0.2901436407   -0.2462635020
 17         -0.4588467508   -0.2381131372    0.2901436278   -0.2462635020
 18         -0.4588468216   -0.2381131410    0.2901436222   -0.2462635019
Atom SCF converged after  18 iterations to a total energy of     -0.45884682

Atom SCF Calculation for O  : Z (AE atom) =   8 : Z (PS atom) =   6
Config String: 2s2.0 2p4.0
Orbitals (num,occ):  2     2.00 4.00
Orbitals   (num,l):  2        0    1
Real-space Grid (nr,dr,rmax): 1503    0.0066577896   10.0000000000
Spherical Bessel Basis (nsws,lmax,cutoff):   37    2  176.3967570603
Confining potential (l,width,scale):  0    3.0000000000  100.0000000000
Confining potential (l,width,scale):  1    3.0000000000  100.0000000000
  1         -8.3209332552   -7.4828484739   10.1554312602   -2.1270270195
  2        -15.1405599232   -3.0474882742   13.6590820486   -2.5134754209
  3        -15.5174094640   -3.1101891961   13.6243211040   -2.6472956001
  4        -15.7606118231   -3.0805775314   13.6668776248   -2.7100307789
  5        -15.8308896490   -3.0881936416   13.6633910567   -2.7338682066
  6        -15.8678540393   -3.0862312957   13.6673103078   -2.7443897972
  7        -15.8801393942   -3.0873360689   13.6669183555   -2.7485230919
  8        -15.8859601688   -3.0872977830   13.6672813272   -2.7502957173
  9        -15.8880580832   -3.0874730763   13.6672320183   -2.7510066526
 10        -15.8889924584   -3.0874981416   13.6672623218   -2.7513066537
 11        -15.8893459980   -3.0875277929   13.6672548500   -2.7514284384
 12        -15.8894977936   -3.0875355600   13.6672566096   -2.7514793465
 13        -15.8895569380   -3.0875407304   13.6672553199   -2.7515001537
 14        -15.8895817884   -3.0875424467   13.6672552475   -2.7515088021
 15        -15.8895916441   -3.0875433561   13.6672550136   -2.7515123499
 16        -15.8895957327   -3.0875436929   13.6672549605   -2.7515138192
 17        -15.8895973717   -3.0875438525   13.6672549179   -2.7515144231
 18        -15.8895980466   -3.0875439149   13.6672549044   -2.7515146726
 19        -15.8895983189   -3.0875439428   13.6672548968   -2.7515147752
 20        -15.8895984306   -3.0875439540   13.6672548940   -2.7515148175
 21        -15.8895984758   -3.0875439588   13.6672548927   -2.7515148349
Atom SCF converged after  21 iterations to a total energy of    -15.88959848

BC: Task: SINGLEPOINT
BC: +++++++++++++++ Summary of boundary conditions ++++++++++++++
BC: |       Component       |     Keyword     |   Periodicity   |
BC: |                       |                 |     X  Y  Z [1] |
BC: |-----------------------------------------------------------|
BC: | Ion-ion               | ion_ion_bc [2]  |     P  P  P     |
BC: | Local pseudopotential | pspot_bc [3]    |     P  P  P     |
BC: +++++++++++++++++++++++++++++++++++++++++++++++++++++++++++++
BC: P: Periodic, O: Open.
BC: [1] Not strictly along X, Y, Z but rather along lattice vectors A1, A2, A3.
BC: [2] Also affected by: pbc_correction_cutoff, cutoff_coulomb_type,
BC:     is_smeared_ion_rep, is_implicit_solvent, openbc_ion_ion.
BC: [3] Also affected by: is_smeared_ion_rep, is_implicit_solvent, openbc_pspot.

Determining parallel strategy ...
... using space-filling curve
... NGWF load balancing: max     48;  min     47;  average     47
... Projector load balancing: max    127;  min    116;  average    120
... Hubbard Projector load balancing: max      5;  min      0;  average      3
... done
Calculating Ewald energy ...
              Ewald: real-space energy =         2644.470738
        Ewald: reciprocal-space energy =         1045.188383
         Ewald: (sum_charge)**2 energy =          184.308480
         Ewald: (sum_charge**2) energy =           69.068407
                          Ewald energy =         3436.282233
Basis initialisation ...
... NGWF spheres initialised
... Projector spheres initialised
... Hubbard Projector spheres initialised
... NGWF tight boxes initialised
... Projector tight boxes initialised
... Tight-boxes gathered
... NGWF basis size (local,global):        744797      4471649
... PAW projector initialisation
... done

============================= Charge Augmentation ==============================
                           Aug box size:   39 x  39 x  39
================================================================================
... Hubbard projector initialisation

========================== Sparse matrix information ===========================
                        Overlap matrix filling:  98.10%
                        Density kernel filling: 100.00% (known to be dense)
              NGWF-Proj overlap matrix filling:  48.73%
                    Aug Overlap matrix filling:  99.77%
      NGWF-Hubbard Proj overlap matrix filling: 100.00%
                             VW matrix filling: 100.00%
                    Hamiltonian matrix filling: 100.00%
                  NGWF diagonal matrix filling:   1.63%
                             KS matrix filling: 100.00% 
                           KSKS matrix filling: 100.00% 
================================================================================

Sparse matrix initialisation ...
 done
NGWF initialisation ... done
============ Calculation of NGWF S^-1 using Hotelling algorithm ================ 
     Iteration  |  Spin  |  Frobenius norm and Maximum abs value (of I-S*S_n^-1)
         1           1      0.16597920E+02     0.99193650E+00
         1           2      0.16597920E+02     0.99193650E+00
         2           1      0.16391455E+02     0.98394116E+00
         2           2      0.16391455E+02     0.98394116E+00
         3           1      0.16024193E+02     0.96815216E+00
         3           2      0.16024193E+02     0.96815216E+00
         4           1      0.15425840E+02     0.93736220E+00
         4           2      0.15425840E+02     0.93736220E+00
         5           1      0.14554060E+02     0.87879449E+00
         5           2      0.14554060E+02     0.87879449E+00
         6           1      0.13402698E+02     0.77271256E+00
         6           2      0.13402698E+02     0.77271256E+00
         7           1      0.12019370E+02     0.70439682E+00
         7           2      0.12019370E+02     0.70439682E+00
         8           1      0.10616022E+02     0.66413595E+00
         8           2      0.10616022E+02     0.66413595E+00
         9           1      0.94166021E+01     0.62461007E+00
         9           2      0.94166021E+01     0.62461007E+00
        10           1      0.82129610E+01     0.56627787E+00
        10           2      0.82129610E+01     0.56627787E+00
        11           1      0.65660490E+01     0.47184836E+00
        11           2      0.65660490E+01     0.47184836E+00
        12           1      0.44103788E+01     0.38152643E+00
        12           2      0.44103788E+01     0.38152643E+00
        13           1      0.22386648E+01     0.28004415E+00
        13           2      0.22386648E+01     0.28004415E+00
        14           1      0.84982872E+00     0.17337454E+00
        14           2      0.84982872E+00     0.17337454E+00
        15           1      0.30836448E+00     0.76484093E-01
        15           2      0.30836448E+00     0.76484093E-01
        16           1      0.64927828E-01     0.16236616E-01
        16           2      0.64927828E-01     0.16236616E-01
        17           1      0.29805456E-02     0.74581684E-03
        17           2      0.29805456E-02     0.74581684E-03
        18           1      0.62940025E-05     0.15766462E-05
        18           2      0.62940025E-05     0.15766462E-05
        19           1      0.28228373E-10     0.70619066E-11
        19           2      0.28228373E-10     0.70619066E-11
        20           1      0.17766909E-13     0.39968029E-14
        20           2      0.17766909E-13     0.39968029E-14
================================================================================
 done

################################################################################
DFT+U information on atom      1 of Hubbard species Fe  
################################################################################
Using the on-atom contravariant metric, the NGWF hydrogenic character
| < \phi | \psi > |**2 matrix of Hubbard site      1 is 
  m_l =   -2          -1           0           1           2         SUM
 -0.00000000  0.00000000  0.00000000 -0.00000000 -0.00000000 -0.00000000
  0.00000000  0.00000000 -0.00000000  0.00000000 -0.00000000 -0.00000000
  0.00000000  0.00000000 -0.00000001  0.00000000  0.00000000 -0.00000001
  0.00000000  0.00000000 -0.00000001  0.00000000 -0.00000002 -0.00000003
  0.50996853  0.00000000  0.00000000 -0.00000000 -0.00000000  0.50996853
  0.00000000  0.51007081 -0.00000000  0.00000000 -0.00000000  0.51007081
  0.00000000 -0.00000000  0.51201632 -0.00000000  0.00000000  0.51201633
 -0.00000000  0.00000000 -0.00000000  0.50998258  0.00000000  0.50998258
 -0.00000000 -0.00000000  0.00000000  0.00000000  0.51202064  0.51202065
 -0.00000000 -0.00000000 -0.00000000 -0.00000000  0.00000000 -0.00000000
  0.00000000  0.00000000 -0.00000000 -0.00000000 -0.00000000 -0.00000000
 -0.00000000 -0.00000000 -0.00000000  0.00000000 -0.00000000 -0.00000000
 -0.00000000 -0.00000000 -0.00000000  0.00000000 -0.00000000 -0.00000001
Total hydrogenic projection of NGWFs on this atom             2.55405885
################################################################################


################################################################################
DFT+U information on atom      2 of Hubbard species Fe  
################################################################################
Using the on-atom contravariant metric, the NGWF hydrogenic character
| < \phi | \psi > |**2 matrix of Hubbard site      2 is 
  m_l =   -2          -1           0           1           2         SUM
 -0.00000000 -0.00000000  0.00000000 -0.00000000  0.00000000  0.00000000
  0.00000000  0.00000000 -0.00000000  0.00000000 -0.00000001 -0.00000001
  0.00000000  0.00000000 -0.00000002  0.00000000  0.00000000 -0.00000002
  0.00000000  0.00000000 -0.00000001  0.00000000 -0.00000002 -0.00000003
  0.50970952  0.00000000  0.00000000 -0.00000000  0.00000000  0.50970952
  0.00000000  0.50972742 -0.00000000  0.00000000  0.00000000  0.50972742
  0.00000000 -0.00000000  0.51228224 -0.00000000  0.00000000  0.51228224
 -0.00000000  0.00000000 -0.00000000  0.50986452  0.00000000  0.50986452
  0.00000000  0.00000000  0.00000000  0.00000000  0.51236248  0.51236248
  0.00000000  0.00000000 -0.00000000 -0.00000000 -0.00000000 -0.00000000
  0.00000000  0.00000000 -0.00000000 -0.00000000  0.00000000 -0.00000000
 -0.00000000 -0.00000000  0.00000001 -0.00000000  0.00000000  0.00000001
  0.00000000 -0.00000000 -0.00000000  0.00000000 -0.00000001 -0.00000001
Total hydrogenic projection of NGWFs on this atom             2.55394613
################################################################################


################################################################################
Using the subspace contravariant metric, the NGWF hydrogenic character
| < \phi | \psi > |**2 matrix of Hubbard site      1 is 
  m_l =   -2          -1           0           1           2         SUM
  0.50996848  0.00000000  0.00000000 -0.00000000 -0.00000000  0.50996848
  0.00000000  0.51007077 -0.00000000  0.00000000 -0.00000000  0.51007077
  0.00000000 -0.00000000  0.51201619 -0.00000000  0.00000000  0.51201619
 -0.00000000  0.00000000 -0.00000000  0.50998255  0.00000000  0.50998255
 -0.00000000 -0.00000000  0.00000000  0.00000000  0.51202047  0.51202047
Total hydrogenic projection of NGWFs on this correlated site  2.55405845
################################################################################


################################################################################
Using the subspace contravariant metric, the NGWF hydrogenic character
| < \phi | \psi > |**2 matrix of Hubbard site      2 is 
  m_l =   -2          -1           0           1           2         SUM
  0.50970951  0.00000000  0.00000000 -0.00000000  0.00000000  0.50970951
  0.00000000  0.50972740 -0.00000000  0.00000000  0.00000000  0.50972740
  0.00000000 -0.00000000  0.51228200 -0.00000000  0.00000000  0.51228200
 -0.00000000  0.00000000 -0.00000000  0.50986452  0.00000000  0.50986452
  0.00000000  0.00000000  0.00000000  0.00000000  0.51236227  0.51236227
Total hydrogenic projection of NGWFs on this correlated site  2.55394570
################################################################################


################################################################################
Using the subspace contravariant metric, the NGWF hydrogenic character
| < \phi | \psi > |**2 matrix of Hubbard site      3 is 
  m_l =   -2          -1           0           1           2         SUM
  0.50999361 -0.00000000  0.00000000  0.00000000 -0.00000000  0.50999361
 -0.00000000  0.50997793  0.00000000  0.00000000  0.00000000  0.50997793
  0.00000000  0.00000000  0.51204434 -0.00000000  0.00000000  0.51204434
  0.00000000  0.00000000 -0.00000000  0.51002200 -0.00000000  0.51002200
 -0.00000000  0.00000000  0.00000000 -0.00000000  0.51202702  0.51202702
Total hydrogenic projection of NGWFs on this correlated site  2.55406490
################################################################################

Calculating core density ...
================================= Core Density =================================
               Core den box size:   39 x  39 x  39
================================================================================
 ... done
Density renormalisation, spin  1 ...
Target Charge:   169.000000000000 ; Input Charge:   162.001826657856
Density renormalisation, spin  2 ...
Target Charge:   154.000000000000 ; Input Charge:   162.001826657856
Density kernel initialisation
 
======= Optimisation of K by Palser-Manolopoulos canonical purification ======== 
         Iteration  |  Band structure energy |    c_n   
               1         -89.72505458555371    0.5873543
               2         -93.03595587980102    0.5828534
               3         -97.06855792163438    0.5761072
               4        -101.89459446504605    0.5668275
               5        -107.67276970848070    0.5543352
               6        -114.44059449022078    0.5391199
               7        -121.70542658748434    0.5263536
               8        -128.21874451440488    0.5263974
               9        -132.43987224059688    0.5570401
              10        -134.08874051724661    0.6304219
              11        -134.50103523499388    0.6502284
              12        -134.65854263935137    0.5995138
              13        -134.77522233994185    0.5425847
              14        -134.85065289242169    0.5080627
              15        -134.87764946387625    0.5000282
              16        -134.88074211949839    0.4999877
              17        -134.88078763017722    0.5000001
              18        -134.88078764702550    0.5000001
Termination criterion satisfied: band energy change below threshold.
Final occupancy bounds: [    0.00000000000000:    1.00000000000000]
Closest occupancy to 0.5:     1.00000000000000
================================================================================
 
======= Optimisation of K by Palser-Manolopoulos canonical purification ======== 
         Iteration  |  Band structure energy |    c_n   
               1         -84.82059570343357    0.5347161
               2         -89.12746173910384    0.5299606
               3         -94.38363149603830    0.5232870
               4        -100.56568933309714    0.5164833
               5        -107.78581090888730    0.5121019
               6        -115.56224727227197    0.5217790
               7        -122.29619441876000    0.5736038
               8        -126.25270300511362    0.6740992
               9        -127.62816113550790    0.7336058
              10        -128.12910424567048    0.7399446
              11        -128.46525088272648    0.7299973
              12        -128.73505932945281    0.7137222
              13        -128.95790748466544    0.6933365
              14        -129.12885499059118    0.6488852
              15        -129.26584480928383    0.5928084
              16        -129.36031920198056    0.5429944
              17        -129.40236558320882    0.5105229
              18        -129.41091936355127    0.5007351
              19        -129.41132238927810    0.5000045
              20        -129.41132365946834    0.4999535
              21        -129.41132365949230    0.4999535
Termination criterion satisfied: band energy change below threshold.
Final occupancy bounds: [    0.00000000000000:    1.00000000000000]
Closest occupancy to 0.5:     1.00000000000000
================================================================================

Writing density kernel to file "Fe3_O_piv_6_H2O_3_HighSpin_NGWFSP.dkn" ... done

>>> Optimising kernel for current NGWFs:
   Initial electron number for spin 1:     169.00000000
   Initial electron number for spin 2:     154.00000000
     Final electron number for spin 1:     169.00000000
     Final electron number for spin 2:     154.00000000

=================== Penalty functional idempotency correction ==================
 RMS occupancy error at iteration   1:  0.000000 (step -0.5000 Ne1=    169.0000)
                                                               Ne2=    154.0000
            Final RMS occupancy error   :  0.000000 (Ne1=    169.0000)
                                                     Ne2=    154.0000
            Final occupancy bounds spin 1: [ -0.000,  1.000]
            Final occupancy bounds spin 2: [  0.000,  1.000]
================================================================================

................................................................................
<<<<<<<<<<<<<< LNV (Original version) density kernel optimisation >>>>>>>>>>>>>>
~~~~~~~~~~~~~~~~~~~~~~~~~~~~~~~~~~~~~~~~~~~~~~~~~~~~~~~~~~~~~~~~~~~~~~~~~~~~~~~~
   iter  |      energy (Eh)       | rms gradient |  commutator  |   dE (Eh)

################################################################################
DFT+U information on atom      1 of Hubbard species Fe  
################################################################################
Occupancy matrix of Hubbard site      1 and spin      1 is 
  m_l =   -2          -1           0           1           2
  0.99486646 -0.00000038  0.00304287 -0.00299190  0.00097046
 -0.00000063  0.99835256  0.00098762 -0.00070668 -0.00015021
  0.00304138  0.00098681  0.99519693  0.00250070 -0.00072979
 -0.00299158 -0.00070638  0.00250168  0.99631651  0.00019373
  0.00096966 -0.00015014 -0.00072951  0.00019358  0.99854435
################################################################################
Occupancy matrix of Hubbard site      1 and spin      2 is 
  m_l =   -2          -1           0           1           2
  0.20248879  0.03979777  0.00582361 -0.08273817  0.02684885
  0.03980292  0.26164626  0.06322283  0.01476059 -0.05484370
  0.00581726  0.06319145  0.13674605  0.00027668 -0.02619490
 -0.08273176  0.01475938  0.00027181  0.21577779 -0.05216049
  0.02683701 -0.05481593 -0.02619025 -0.05214003  0.16932702
################################################################################
Total occupancy of Hubbard site      1 is         5.96926271 e
Local magnetic moment of Hubbard site      1 is   3.99729090 mu_B
DFT+U energy of Hubbard site      1 is            0.05582791 Ha
################################################################################


################################################################################
DFT+U information on atom      2 of Hubbard species Fe  
################################################################################
Occupancy matrix of Hubbard site      2 and spin      1 is 
  m_l =   -2          -1           0           1           2
  0.98987283 -0.00069448  0.00142154 -0.00129996  0.00017583
 -0.00069459  0.99795061  0.00003067  0.00022046  0.00012489
  0.00142179  0.00003072  0.99891155  0.00014764  0.00003833
 -0.00130023  0.00022047  0.00014762  0.99777730  0.00007130
  0.00017538  0.00012495  0.00003842  0.00007117  0.99887719
################################################################################
Occupancy matrix of Hubbard site      2 and spin      2 is 
  m_l =   -2          -1           0           1           2
  0.13080557 -0.00643427  0.01265079  0.00191708  0.02458714
 -0.00643505  0.11972549 -0.03867049  0.01164654 -0.01990111
  0.01265060 -0.03866651  0.29729987 -0.02220075 -0.00500468
  0.00191758  0.01164745 -0.02220600  0.12084949  0.02486386
  0.02458534 -0.01989572 -0.00500455  0.02485541  0.31651920
################################################################################
Total occupancy of Hubbard site      2 is         5.96858910 e
Local magnetic moment of Hubbard site      2 is   3.99818987 mu_B
DFT+U energy of Hubbard site      2 is            0.05579443 Ha
################################################################################

      ideal mu1:      -0.690341098218
      ideal mu2:      -0.684134629655
             Q0:        -833.048624940160
             G0:      -8.604528304088
   RMS gradient:       0.014658586566

################################################################################
DFT+U information on atom      1 of Hubbard species Fe  
################################################################################
Occupancy matrix of Hubbard site      1 and spin      1 is 
  m_l =   -2          -1           0           1           2
  0.99843600  0.00017503  0.00105234 -0.00133680  0.00048380
  0.00017495  0.99987223  0.00065059 -0.00021732 -0.00023484
  0.00105180  0.00065015  0.99823429  0.00088590 -0.00028846
 -0.00133666 -0.00021721  0.00088624  0.99900962 -0.00005779
  0.00048345 -0.00023474 -0.00028834 -0.00005778  0.99965477
################################################################################
Occupancy matrix of Hubbard site      1 and spin      2 is 
  m_l =   -2          -1           0           1           2
  0.27499280  0.06006839  0.01329967 -0.11784119  0.03615686
  0.06007589  0.35350154  0.08375572  0.01303350 -0.06585668
  0.01328896  0.08371357  0.18175647  0.00173312 -0.03285878
 -0.11783194  0.01303304  0.00172781  0.29257474 -0.06329476
  0.03614023 -0.06582394 -0.03285156 -0.06327003  0.23691011
################################################################################
Total occupancy of Hubbard site      1 is         6.33494258 e
Local magnetic moment of Hubbard site      1 is   3.65547125 mu_B
DFT+U energy of Hubbard site      1 is            0.06600214 Ha
################################################################################


################################################################################
DFT+U information on atom      2 of Hubbard species Fe  
################################################################################
Occupancy matrix of Hubbard site      2 and spin      1 is 
  m_l =   -2          -1           0           1           2
  0.99643853 -0.00024697  0.00055713 -0.00049257  0.00014625
 -0.00024701  0.99924114 -0.00009876  0.00024411 -0.00007823
  0.00055721 -0.00009872  1.00024792 -0.00002933  0.00000098
 -0.00049268  0.00024412 -0.00002935  0.99911100  0.00012321
  0.00014608 -0.00007819  0.00000101  0.00012312  1.00022552
WARNING: OCCUPANCY MATRIX of Hubbard site      2 and spin      1 exceeeds 1.
################################################################################
Occupancy matrix of Hubbard site      2 and spin      2 is 
  m_l =   -2          -1           0           1           2
  0.16844110 -0.01073359  0.01759207 -0.00010630  0.03241317
 -0.01073485  0.16940806 -0.05146695  0.02184902 -0.02516404
  0.01759166 -0.05146136  0.41598205 -0.03029274 -0.00701673
 -0.00010603  0.02185049 -0.03029964  0.17126204  0.03255144
  0.03241065 -0.02515710 -0.00701630  0.03254058  0.41583676
################################################################################
Total occupancy of Hubbard site      2 is         6.33619413 e
Local magnetic moment of Hubbard site      2 is   3.65433409 mu_B
DFT+U energy of Hubbard site      2 is            0.06605806 Ha
################################################################################

     Trial step:       0.500000000000
             Q1:        -833.621320444340
 Quadratic coef:       3.729568647864
 Linear coef   :      -4.302264152044
           Qmin:        -834.289349979808
Quadratic minimum step length (  0.288388856611) accepted
    Initial Ne1:     169.00000000
    Initial Ne2:     154.00000000
      Final Ne1:     169.00000000
      Final Ne2:     154.00000000

=================== Penalty functional idempotency correction ==================
 RMS occupancy error at iteration   1:  0.003932 (step -0.4881 Ne1=    169.0000)
                                                               Ne2=    154.0000
 RMS occupancy error at iteration   2:  0.000033 (step -0.5001 Ne1=    169.0000)
                                                               Ne2=    154.0000
            Final RMS occupancy error   :  0.000000 (Ne1=    169.0000)
                                                     Ne2=    154.0000
            Final occupancy bounds spin 1: [  0.000,  1.000]
            Final occupancy bounds spin 2: [  0.000,  1.000]
================================================================================

    1        -8.330486249402E+02     1.4659E-02     9.1328E-03

################################################################################
DFT+U information on atom      1 of Hubbard species Fe  
################################################################################
Occupancy matrix of Hubbard site      1 and spin      1 is 
  m_l =   -2          -1           0           1           2
  0.99733512  0.00014608  0.00174361 -0.00192953  0.00067047
  0.00014594  0.99950220  0.00075365 -0.00041327 -0.00019895
  0.00174275  0.00075309  0.99728232  0.00146920 -0.00044073
 -0.00192933 -0.00041310  0.00146978  0.99817818  0.00002588
  0.00066996 -0.00019887 -0.00044056  0.00002583  0.99934648
################################################################################
Occupancy matrix of Hubbard site      1 and spin      2 is 
  m_l =   -2          -1           0           1           2
  0.24466884  0.05178758  0.01033638 -0.10334574  0.03233949
  0.05179414  0.31495737  0.07512407  0.01352712 -0.06136280
  0.01032742  0.07508646  0.16272299  0.00114623 -0.03012353
 -0.10333768  0.01352639  0.00114110  0.26020287 -0.05881007
  0.03232482 -0.06133206 -0.03011743 -0.05878707  0.20793472
################################################################################
Total occupancy of Hubbard site      1 is         6.18213108 e
Local magnetic moment of Hubbard site      1 is   3.80115751 mu_B
DFT+U energy of Hubbard site      1 is            0.06213481 Ha
################################################################################


################################################################################
DFT+U information on atom      2 of Hubbard species Fe  
################################################################################
Occupancy matrix of Hubbard site      2 and spin      1 is 
  m_l =   -2          -1           0           1           2
  0.99424324 -0.00039902  0.00083706 -0.00076981  0.00016490
 -0.00039908  0.99890029 -0.00005232  0.00021872 -0.00001772
  0.00083720 -0.00005227  0.99996408 -0.00000963  0.00002534
 -0.00076997  0.00021873 -0.00000965  0.99875815  0.00009333
  0.00016464 -0.00001768  0.00002539  0.00009323  0.99985860
################################################################################
Occupancy matrix of Hubbard site      2 and spin      2 is 
  m_l =   -2          -1           0           1           2
  0.15228010 -0.00890295  0.01551703  0.00079593  0.02916487
 -0.00890400  0.14823601 -0.04632010  0.01725688 -0.02294439
  0.01551669 -0.04631516  0.36658909 -0.02709245 -0.00619551
  0.00079630  0.01725809 -0.02709870  0.14973413  0.02931069
  0.02916265 -0.02293811 -0.00619521  0.02930084  0.37399529
################################################################################
Total occupancy of Hubbard site      2 is         6.18255898 e
Local magnetic moment of Hubbard site      2 is   3.80088973 mu_B
DFT+U energy of Hubbard site      2 is            0.06215661 Ha
################################################################################

      ideal mu1:      -0.741059569816
      ideal mu2:      -0.744127388746
             Q0:        -834.310996231799
             G0:      -0.554274686039
   RMS gradient:       0.003696031196

################################################################################
DFT+U information on atom      1 of Hubbard species Fe  
################################################################################
Occupancy matrix of Hubbard site      1 and spin      1 is 
  m_l =   -2          -1           0           1           2
  0.99837993  0.00017425  0.00091581 -0.00125343  0.00046810
  0.00017417  0.99975796  0.00059066 -0.00017953 -0.00020673
  0.00091535  0.00059027  0.99816250  0.00085547 -0.00030382
 -0.00125332 -0.00017945  0.00085581  0.99888002 -0.00008934
  0.00046777 -0.00020665 -0.00030371 -0.00008932  0.99952269
################################################################################
Occupancy matrix of Hubbard site      1 and spin      2 is 
  m_l =   -2          -1           0           1           2
  0.25911237  0.05683891  0.01249701 -0.11277913  0.03486010
  0.05684588  0.33616083  0.08087139  0.01330138 -0.06362034
  0.01248673  0.08083069  0.17084678  0.00182499 -0.03148176
 -0.11277009  0.01330083  0.00181991  0.27778499 -0.06086561
  0.03484400 -0.06358873 -0.03147469 -0.06084180  0.22504073
################################################################################
Total occupancy of Hubbard site      1 is         6.26364880 e
Local magnetic moment of Hubbard site      1 is   3.72575741 mu_B
DFT+U energy of Hubbard site      1 is            0.06405659 Ha
################################################################################


################################################################################
DFT+U information on atom      2 of Hubbard species Fe  
################################################################################
Occupancy matrix of Hubbard site      2 and spin      1 is 
  m_l =   -2          -1           0           1           2
  0.99650054 -0.00022503  0.00047515 -0.00044864  0.00012210
 -0.00022507  0.99908195 -0.00005812  0.00023064 -0.00008146
  0.00047522 -0.00005809  1.00004208 -0.00007820  0.00001479
 -0.00044873  0.00023065 -0.00007821  0.99900617  0.00011090
  0.00012193 -0.00008143  0.00001481  0.00011082  1.00009419
WARNING: OCCUPANCY MATRIX of Hubbard site      2 and spin      1 exceeeds 1.
################################################################################
Occupancy matrix of Hubbard site      2 and spin      2 is 
  m_l =   -2          -1           0           1           2
  0.15810514 -0.01044147  0.01742936 -0.00030383  0.03116363
 -0.01044275  0.15911080 -0.04866379  0.02158471 -0.02422433
  0.01742917 -0.04865842  0.39433847 -0.02873313 -0.00674989
 -0.00030365  0.02158614 -0.02873968  0.16101401  0.03155164
  0.03116114 -0.02421758 -0.00674948  0.03154114  0.39716974
################################################################################
Total occupancy of Hubbard site      2 is         6.26446310 e
Local magnetic moment of Hubbard site      2 is   3.72498676 mu_B
DFT+U energy of Hubbard site      2 is            0.06410334 Ha
################################################################################

     Trial step:       0.379729414591
             Q1:        -834.393408402055
 Quadratic coef:       0.128062231796
 Linear coef   :      -0.210474402052
           Qmin:        -834.397476596263
Quadratic minimum step length (  0.312048760812) accepted
    Initial Ne1:     168.99999712
    Initial Ne2:     153.99999579
      Final Ne1:     169.00000000
      Final Ne2:     154.00000000

=================== Penalty functional idempotency correction ==================
 RMS occupancy error at iteration   1:  0.000832 (step -0.4974 Ne1=    169.0000)
                                                               Ne2=    154.0000
 RMS occupancy error at iteration   2:  0.000002 (step -0.5000 Ne1=    169.0000)
                                                               Ne2=    154.0000
            Final RMS occupancy error   :  0.000000 (Ne1=    169.0000)
                                                     Ne2=    154.0000
            Final occupancy bounds spin 1: [  0.000,  1.000]
            Final occupancy bounds spin 2: [  0.000,  1.000]
================================================================================

    2        -8.343109962318E+02     3.6960E-03     2.2952E-03    -1.2624E+00

################################################################################
DFT+U information on atom      1 of Hubbard species Fe  
################################################################################
Occupancy matrix of Hubbard site      1 and spin      1 is 
  m_l =   -2          -1           0           1           2
  0.99821866  0.00017029  0.00104793 -0.00136154  0.00050059
  0.00017020  0.99972125  0.00061563 -0.00021723 -0.00020576
  0.00104741  0.00061521  0.99802663  0.00095304 -0.00032639
 -0.00136141 -0.00021713  0.00095342  0.99877138 -0.00007173
  0.00050023 -0.00020568 -0.00032627 -0.00007172  0.99949611
################################################################################
Occupancy matrix of Hubbard site      1 and spin      2 is 
  m_l =   -2          -1           0           1           2
  0.25653424  0.05594207  0.01211298 -0.11110030  0.03441220
  0.05594897  0.33237323  0.07984521  0.01333695 -0.06322405
  0.01210294  0.07980506  0.16939051  0.00170357 -0.03124358
 -0.11109143  0.01333637  0.00169848  0.27463743 -0.06050848
  0.03439635 -0.06319258 -0.03123669 -0.06048481  0.22196023
################################################################################
Total occupancy of Hubbard site      1 is         6.24912966 e
Local magnetic moment of Hubbard site      1 is   3.73933840 mu_B
DFT+U energy of Hubbard site      1 is            0.06372359 Ha
################################################################################


################################################################################
DFT+U information on atom      2 of Hubbard species Fe  
################################################################################
Occupancy matrix of Hubbard site      2 and spin      1 is 
  m_l =   -2          -1           0           1           2
  0.99614456 -0.00025268  0.00053216 -0.00049914  0.00012880
 -0.00025272  0.99905600 -0.00005806  0.00022683 -0.00007113
  0.00053224 -0.00005802  1.00003447 -0.00006802  0.00001634
 -0.00049924  0.00022683 -0.00006804  0.99896982  0.00010792
  0.00012862 -0.00007109  0.00001637  0.00010783  1.00005996
WARNING: OCCUPANCY MATRIX of Hubbard site      2 and spin      1 exceeeds 1.
################################################################################
Occupancy matrix of Hubbard site      2 and spin      2 is 
  m_l =   -2          -1           0           1           2
  0.15705598 -0.01016492  0.01708709 -0.00010403  0.03080789
 -0.01016616  0.15715157 -0.04825290  0.02079878 -0.02399673
  0.01708687 -0.04824761  0.38938929 -0.02844766 -0.00665173
 -0.00010381  0.02080017 -0.02845415  0.15898253  0.03115097
  0.03080545 -0.02399006 -0.00665135  0.03114058  0.39302956
################################################################################
Total occupancy of Hubbard site      2 is         6.24987375 e
Local magnetic moment of Hubbard site      2 is   3.73865588 mu_B
DFT+U energy of Hubbard site      2 is            0.06376611 Ha
################################################################################

      ideal mu1:      -0.751961588753
      ideal mu2:      -0.756338429125
             Q0:        -834.398103330851
             G0:      -0.218240392132
   RMS gradient:       0.002325463939

################################################################################
DFT+U information on atom      1 of Hubbard species Fe  
################################################################################
Occupancy matrix of Hubbard site      1 and spin      1 is 
  m_l =   -2          -1           0           1           2
  0.99884494  0.00018862  0.00045526 -0.00089079  0.00035320
  0.00018857  0.99981239  0.00051622 -0.00004525 -0.00020666
  0.00045503  0.00051591  0.99854324  0.00051019 -0.00023243
 -0.00089071 -0.00004522  0.00051040  0.99918185 -0.00015621
  0.00035297 -0.00020658 -0.00023235 -0.00015615  0.99955346
################################################################################
Occupancy matrix of Hubbard site      1 and spin      2 is 
  m_l =   -2          -1           0           1           2
  0.26510656  0.05901845  0.01360754 -0.11827123  0.03643870
  0.05902547  0.34797764  0.08501375  0.01413645 -0.06548757
  0.01359641  0.08497076  0.17425417  0.00222842 -0.03239805
 -0.11826139  0.01413588  0.00222327  0.28759348 -0.06233660
  0.03642163 -0.06545518 -0.03239022 -0.06231215  0.23536216
################################################################################
Total occupancy of Hubbard site      1 is         6.30622987 e
Local magnetic moment of Hubbard site      1 is   3.68564188 mu_B
DFT+U energy of Hubbard site      1 is            0.06491751 Ha
################################################################################


################################################################################
DFT+U information on atom      2 of Hubbard species Fe  
################################################################################
Occupancy matrix of Hubbard site      2 and spin      1 is 
  m_l =   -2          -1           0           1           2
  0.99764602 -0.00013439  0.00029069 -0.00027637  0.00009394
 -0.00013441  0.99908264 -0.00005551  0.00025671 -0.00011782
  0.00029073 -0.00005548  0.99999299 -0.00011141  0.00001002
 -0.00027643  0.00025671 -0.00011142  0.99905229  0.00012398
  0.00009382 -0.00011779  0.00001003  0.00012391  1.00014954
WARNING: OCCUPANCY MATRIX of Hubbard site      2 and spin      1 exceeeds 1.
################################################################################
[...]
*    C      84     -0.00000002  -0.00000345   0.00000075 *
*    H      85     -0.00000002  -0.00000345   0.00000075 *
*    H      86     -0.00000002  -0.00000345   0.00000075 *
*    H      87     -0.00000002  -0.00000345   0.00000075 *
*    C      88     -0.00000002  -0.00000345   0.00000075 *
*    H      89     -0.00000002  -0.00000345   0.00000075 *
*    H      90     -0.00000002  -0.00000345   0.00000075 *
*    H      91     -0.00000002  -0.00000345   0.00000075 *
*    C      92     -0.00000002  -0.00000345   0.00000075 *
*    H      93     -0.00000002  -0.00000345   0.00000075 *
*    H      94     -0.00000002  -0.00000345   0.00000075 *
*    H      95     -0.00000002  -0.00000345   0.00000075 *
*    C      96     -0.00000002  -0.00000345   0.00000075 *
*    C      97     -0.00000002  -0.00000345   0.00000075 *
*    C      98     -0.00000002  -0.00000345   0.00000075 *
*    H      99     -0.00000002  -0.00000345   0.00000075 *
*    H     100     -0.00000002  -0.00000345   0.00000075 *
*    H     101     -0.00000002  -0.00000345   0.00000075 *
*    C     102     -0.00000002  -0.00000345   0.00000075 *
*    H     103     -0.00000002  -0.00000345   0.00000075 *
*    H     104     -0.00000002  -0.00000345   0.00000075 *
*    H     105     -0.00000002  -0.00000345   0.00000075 *
*    C     106     -0.00000002  -0.00000345   0.00000075 *
*    H     107     -0.00000002  -0.00000345   0.00000075 *
*    H     108     -0.00000002  -0.00000345   0.00000075 *
*    H     109     -0.00000002  -0.00000345   0.00000075 *
*                                                        *
**********************************************************
TOTAL:             -0.00000173  -0.00037618   0.00008177

********************* Unconstrained **********************
************************* Forces *************************
*                                                        *
* Element  Atom         Cartesian components (Eh/a)      *
* ------------------------------------------------------ *
*                       x            y            z      *
*                                                        *
*    Fe      1     -0.00241601   0.00299368  -0.00326615 *
*    Fe      2     -0.00151264   0.00049841   0.00422829 *
*    Fe      3      0.00357483  -0.00273000  -0.00139169 *
*    O       4      0.00027191   0.00011415   0.00035897 *
*    O       5     -0.00681661  -0.00072565   0.00716074 *
*    H       6      0.00178748  -0.00703752  -0.00632501 *
*    H       7      0.00840547   0.00398228   0.00203767 *
*    O       8      0.00871770  -0.00595966  -0.00019645 *
*    H       9     -0.00021601   0.00982577  -0.00101691 *
*    H      10     -0.00794653  -0.00317533  -0.00441963 *
*    O      11     -0.00477659   0.00211741  -0.00863251 *
*    H      12     -0.00359894  -0.00603849   0.00654049 *
*    H      13      0.00451166   0.00683615   0.00502776 *
*    O      14      0.00545433  -0.00677388   0.01274847 *
*    O      15     -0.00246066   0.00594029  -0.01296166 *
*    O      16      0.00485942  -0.00729234   0.01213368 *
*    O      17     -0.00494433   0.00558979  -0.01316845 *
*    O      18      0.00581660  -0.00394061  -0.01355301 *
*    O      19     -0.00535330   0.00533638   0.01197427 *
*    O      20      0.00540441  -0.00391243  -0.01309371 *
*    O      21     -0.00768591   0.00425039   0.01228402 *
*    O      22     -0.00996674   0.01174996  -0.00041946 *
*    O      23      0.00979160  -0.01022810   0.00193196 *
*    O      24     -0.00990187   0.01000871   0.00249445 *
*    O      25      0.00931166  -0.01183315  -0.00124971 *
*    C      26      0.00682804   0.00242521  -0.00182274 *
*    C      27      0.00165731   0.00035495  -0.00021263 *
*    C      28     -0.00000297  -0.00029318  -0.00058670 *
*    H      29     -0.00249800   0.00125458  -0.00324908 *
*    H      30      0.00036811  -0.00421740  -0.00033137 *
*    H      31      0.00396772   0.00152446  -0.00103702 *
*    C      32      0.00030176   0.00050376   0.00005275 *
*    H      33     -0.00260683   0.00170904  -0.00299016 *
*    H      34      0.00390707   0.00191807  -0.00066415 *
*    H      35     -0.00126254   0.00150914   0.00375996 *
*    C      36      0.00049000  -0.00006794   0.00011644 *
*    H      37      0.00046515  -0.00429682   0.00015540 *
*    H      38     -0.00097033   0.00109765   0.00403267 *
*    H      39      0.00404329   0.00157376  -0.00058127 *
*    C      40      0.00054161  -0.00706560  -0.00279886 *
*    C      41      0.00021856  -0.00121065  -0.00125244 *
*    C      42     -0.00052539  -0.00010287  -0.00006918 *
*    H      43     -0.00347623   0.00217579  -0.00134789 *
*    H      44     -0.00066211  -0.00059919   0.00418280 *
*    H      45     -0.00041192  -0.00403313  -0.00175826 *
*    C      46      0.00051782  -0.00024407   0.00012391 *
*    H      47      0.00387032   0.00157403  -0.00067477 *
*    H      48     -0.00007544  -0.00400008  -0.00189425 *
*    H      49     -0.00016945  -0.00082745   0.00426832 *
*    C      50      0.00016973  -0.00002531  -0.00042406 *
*    H      51      0.00369272   0.00180954  -0.00129896 *
*    H      52     -0.00328163   0.00221244  -0.00190962 *
*    H      53     -0.00017880  -0.00386122  -0.00201768 *
*    C      54      0.00060516   0.00771955  -0.00133908 *
*    C      55      0.00026349   0.00138104  -0.00047052 *
*    C      56     -0.00000438   0.00023241  -0.00031974 *
*    H      57      0.00040527   0.00424822  -0.00094817 *
*    H      58     -0.00204520  -0.00174251  -0.00337337 *
*    H      59      0.00405965  -0.00158820  -0.00034704 *
*    C      60     -0.00041500   0.00023632  -0.00016194 *
*    H      61     -0.00002971   0.00433229  -0.00090528 *
*    H      62     -0.00213531  -0.00040256   0.00372600 *
*    H      63     -0.00244984  -0.00165985  -0.00300257 *
*    C      64      0.00027894   0.00040029   0.00013466 *
*    H      65      0.00031171   0.00431318  -0.00062510 *
*    H      66      0.00413407  -0.00137829   0.00034346 *
*    H      67     -0.00165225  -0.00034303   0.00401096 *
*    C      68     -0.00650945  -0.00112582  -0.00364363 *
*    C      69     -0.00156447  -0.00040418  -0.00045259 *
*    C      70     -0.00004536  -0.00045673  -0.00010126 *
*    H      71     -0.00386898  -0.00127268  -0.00177606 *
*    H      72      0.00040710  -0.00225594   0.00369840 *
*    H      73      0.00298595  -0.00158760  -0.00263248 *
*    C      74     -0.00028947   0.00031159  -0.00032135 *
*    H      75     -0.00398478  -0.00078950  -0.00194723 *
*    H      76      0.00305550  -0.00120590  -0.00288435 *
*    H      77      0.00013950   0.00424622   0.00014642 *
*    C      78     -0.00067620   0.00010668   0.00009199 *
*    H      79     -0.00398274  -0.00086510  -0.00151683 *
*    H      80     -0.00015859   0.00422339   0.00066248 *
*    H      81     -0.00000906  -0.00185583   0.00387602 *
*    C      82      0.00407200   0.00324091   0.00578483 *
*    C      83      0.00098393   0.00082871   0.00136462 *
*    C      84      0.00029429   0.00043413  -0.00005860 *
*    H      85      0.00222418   0.00142448  -0.00337320 *
*    H      86      0.00180394   0.00192320   0.00352961 *
*    H      87     -0.00401455   0.00181133  -0.00041428 *
*    C      88     -0.00031225  -0.00041687   0.00051158 *
*    H      89     -0.00012049  -0.00419736   0.00063471 *
*    H      90     -0.00410441   0.00129219  -0.00019651 *
*    H      91      0.00164512   0.00168416   0.00371633 *
*    C      92      0.00047906  -0.00015054   0.00025918 *
*    H      93      0.00191260   0.00179870   0.00346891 *
*    H      94      0.00257678   0.00094874  -0.00334534 *
*    H      95      0.00046126  -0.00425986   0.00057171 *
*    C      96     -0.00466964  -0.00421090   0.00452010 *
*    C      97     -0.00115343  -0.00101874   0.00114908 *
*    C      98     -0.00015024  -0.00022792  -0.00033320 *
*    H      99     -0.00290750  -0.00273247   0.00179341 *
*    H     100      0.00167707  -0.00226925  -0.00317841 *
*    H     101     -0.00253078   0.00289337  -0.00195052 *
*    C     102     -0.00025859   0.00016887   0.00037303 *
*    H     103     -0.00264498  -0.00254650   0.00227578 *
*    H     104     -0.00260568   0.00319086  -0.00146312 *
*    H     105      0.00250980   0.00173446   0.00273987 *
*    C     106      0.00033196  -0.00060891   0.00050183 *
*    H     107     -0.00250125  -0.00280357   0.00218137 *
*    H     108      0.00287335   0.00131490   0.00277877 *
*    H     109      0.00207441  -0.00245730  -0.00276088 *
*                                                        *
**********************************************************
* TOTAL:           -0.00000000   0.00000000  -0.00000000 *
**********************************************************
 
 
***********************************************************
********** Summary of Forces (values in Eh/a) *************
*                                                         *
* ---------------------- Minimum ------------------------ *
* Atom:        56, |F|min =    0.00039531                 *
* Components:     Fx|min       Fy|min       Fz|min        *
*              -0.00000438   0.00023241  -0.00031974      *
*                                                         *
* ---------------------- Maximum ------------------------ *
* Atom:        14, |F|max =    0.01543239                 *
* Components:     Fx|max       Fy|max       Fz|max        *
*               0.00545433  -0.00677388   0.01274847      *
*                                                         *
* ---------------- Root Mean Square Force --------------- *
*                  |F|rms =    0.00675957                 *
* Components:     Fx|rms       Fy|rms       Fz|rms        *
*               0.00362464   0.00375106   0.00429923      *
***********************************************************
 

------------------------------ TIMING INFORMATION ------------------------------
AVERAGE TIME:   13879.602s on      6 proc(s)                                    
TOTAL TIME:     13879.602s on      6 proc(s)                                    
==================== AVERAGE TIMINGS FROM ALL PROCS (CUMULATIVE) =====================
|| TAG                                         #calls     cpu time   %total  Gflops ||
|| hubbard_species_proj                       :     1        0.00s   0.000%  ------ ||
|| hash_table_free                            :    27        0.00s   0.000%  ------ ||
|| hubbard_ngwf_select                        :     1        0.00s   0.000%  ------ ||
|| hubbard_projector_character                :     1        0.00s   0.000%  ------ ||
|| linalg_invert_sym_matrix                   :     4        0.00s   0.000%  ------ || (3 procs only)
|| hubbard_tensorial_correction               :     2        0.00s   0.000%  ------ ||
|| hubbard_ngwf_on_grid                       :     1        0.00s   0.000%  ------ ||
|| ewald_calculate_forces_realspace           :     1        0.00s   0.000%  ------ ||
|| sparse_blacstospam3_real_fast_imbal        :    24        0.00s   0.000%  ------ ||
|| sparse_spam3toblacs_real_fast_imbal        :     6        0.00s   0.000%  ------ ||
|| onetep.F90 main loop imbalance             :     1        0.00s   0.000%  ------ ||
|| density_fftbox_interp_mult_imbal           : 14112        0.00s   0.000%  ------ ||
|| sw_bessel_init_cpu                         :     1        0.01s   0.000%  ------ || (1 procs only)
|| sparse_spam3toblacs_real_fast_B2           :    36        0.00s   0.000%  ------ ||
|| sparse_spam3toblacs_real_fast_B1           :    36        0.01s   0.000%  ------ ||
|| sparse_set_to_garbage                      :   586        0.01s   0.000%  ------ ||
|| sparse_spam3toblacs_real_fast              :     6        0.02s   0.000%  ------ ||
|| ewald_calculate_energy                     :     1        0.02s   0.000%  ------ ||
|| hubbard_projection_mtx                     :    29        0.02s   0.000%  ------ ||
|| sparse_init                                :     1        0.03s   0.000%  ------ ||
|| paw_dij_hartree                            :   159        0.03s   0.000%  ------ ||
|| linalg_dgemv                               :   127        0.03s   0.000%  ------ ||
|| ewald_calculate_forces_recipspace          :     1        0.04s   0.000%  ------ ||
|| ewald_calculate_forces                     :     1        0.04s   0.000%  ------ ||
|| paw_tcore_density                          :     1        0.05s   0.000%  ------ ||
|| sw_init                                    :   299        0.07s   0.000%  ------ ||
|| sparse_blacstospam3_real_fast              :    24        0.07s   0.001%  ------ ||
|| dense_eigensolve                           :     2        0.11s   0.001%  ------ ||
|| hubbard_projector_ham                      :    71        0.15s   0.001%  ------ ||
|| basis_extract_function_from_box            :  2641        0.16s   0.001%  ------ ||
|| palser_mano_kernel_optimise_spam3_embed    :     2        0.24s   0.002%  ------ ||
|| hubbard_ham_matrix                         :    72        0.24s   0.002%  ------ ||
|| augmentation_density_forces                :     1        0.25s   0.002%  ------ ||
|| sparse_embed_array_hotelling_invert        :    27        0.39s   0.003%  ------ ||
|| hubbard_energy_total                       :   143        0.51s   0.004%  ------ ||
|| paw_tcore_hartree_on_grid                  :     1        0.57s   0.004%  ------ ||
|| hubbard_calculate_forces                   :     1        0.85s   0.006%  ------ ||
|| pseudo_make_structure_factor               :     1        0.88s   0.006%  ------ ||
|| kernel_purify                              :   224        1.16s   0.008%  ------ ||
|| paw_sphere_density_on_grid                 :     1        1.28s   0.009%  ------ ||
|| sparse_trace                               :  5697        1.31s   0.009%  ------ ||
|| lnv_gradient_norm                          :    70        1.56s   0.011%  ------ ||
|| ngwfs_initialise_from_radial               :     4        1.70s   0.012%  ------ ||
|| paw_dataset_init                           :     4        1.74s   0.013%  ------ ||
|| kernel_fix                                 :    70        1.82s   0.013%  ------ ||
|| restart_kernel_write                       :    15        1.83s   0.013%  ------ ||
|| paw_tcore_hartree_calc_forces              :     1        2.46s   0.018%  ------ ||
|| nonsc_forces_ngwfs_calc                    :     1        4.04s   0.029%  ------ ||
|| paw_species_calc_proj_prec_mat             :     1        4.77s   0.034%  ------ ||
|| ngwf_gradient_coeffs                       :    14        4.85s   0.035%  ------ ||
|| integrals_grad_spam3                       :     4        4.88s   0.035%  ------ ||
|| paw_nlcc_calculate_forces                  :     1        6.13s   0.044%  ------ ||
|| energy_and_force_init_cell                 :     1        7.36s   0.053%  ------ ||
|| onetep.F90 final imbalance                 :     1        7.53s   0.054%  ------ ||
|| function_ops_brappd_ketppd_spam3           :   112        9.70s   0.070%  ------ ||
|| sparse_product                             : 10332       12.01s   0.087%  ------ ||
|| hubbard_projector_update                   :     1       14.08s   0.101%  ------ ||
|| projectors_func_grad_ovlp_box_spam3        :     6       23.97s   0.173%  ------ ||
|| aug_nl_calculate_forces                    :     1       24.39s   0.176%  ------ ||
|| eigenstates_calculate                      :     1       24.81s   0.179%  ------ ||
|| restart_ngwfs_tightbox_output              :    13       25.74s   0.185%  ------ ||
|| augmentation_screen_dij_spam3              :   151       29.76s   0.214%  ------ ||
|| basis_copy_function_to_box                 : 26229       37.42s   0.270%  ------ ||
|| aug_nonlocal_mat_spam3_embed_array         :   144       39.70s   0.286%  ------ ||
|| paw_dij_xc                                 :   159       42.13s   0.304%  ------ ||
|| fourier_apply_box_pair                     :  3988       50.93s   0.367%  89.337 ||
|| cell_grid_extract_box_real                 : 14962       64.17s   0.462%  ------ ||
|| fourier_filter_cell                        :   184       64.95s   0.468%  24.749 ||
|| integrals_kinetic_spam3                    :    54       68.97s   0.497%  ------ ||
|| aug_density_on_grid_spam3                  :   147       70.90s   0.511%  ------ ||
|| density_init_guess_real                    :     2       89.94s   0.648%  ------ ||
|| forces_calculate                           :     1       90.94s   0.655%  ------ ||
|| integrals_locpot_mat_els_batch             :   468       94.52s   0.681%  ------ ||
|| hartree_on_grid_single                     :   146       95.62s   0.689%  ------ ||
|| basis_dot_function_with_box                : 3.436M      97.87s   0.705%  ------ ||
|| fourier_interpolate_cell                   :   294      112.06s   0.807%  22.919 ||
|| density_batch_row_sums                     :   882      129.84s   0.935%  ------ ||
|| cell_grid_deposit_box_real                 : 21284      130.83s   0.943%  ------ ||
|| projectors_init_fftbox_recip               :   373      164.03s   1.182%  ------ ||
|| basis_add_function_to_box                  : 5.356M     176.88s   1.274%  ------ ||
|| hamiltonian_energy_components              :     3      238.98s   1.722%  ------ ||
|| density_fftbox_deposit_to_cell             : 14112      272.40s   1.963%  ------ ||
|| projectors_func_ovlp_box_spam3             :   114      342.04s   2.464%  ------ ||
|| fourier_apply_cell_forward                 :  1315      361.02s   2.601%  28.631 ||
|| properties_calculate                       :     1      381.46s   2.748%  ------ ||
|| fourier_filter                             :  5064      402.64s   2.901%  ------ ||
|| fourier_apply_cell_backward                :  1315      433.49s   3.123%  23.845 ||
|| xc_energy_potential                        :   146      862.43s   6.214%  ------ ||
|| fourier_interpolate                        :  5064     1006.85s   7.254%  ------ ||
|| potential_apply_to_ngwf_batch              :   468     1641.48s  11.827%  ------ ||
|| integrals_locpot_dbl_grid                  :   156     1736.15s  12.509%  ------ ||
|| fourier_interpolate_product                : 13867     2286.47s  16.474%  ------ ||
|| projectors_gradient_batch                  :   168     2416.63s  17.411%  ------ ||
|| density_fftbox_interpolate_multiply        : 14112     2469.09s  17.789%  ------ ||
|| fourier_apply_box                          : 99820     2568.88s  18.508% 119.571 ||
|| projectors_grad_precond_batch              :    84     2921.68s  21.050%  ------ ||
|| density_batch_interp_deposit               :   882     3067.90s  22.104%  ------ ||
|| density_on_dbl_grid                        :   294     3365.78s  24.250%  ------ ||
|| hamiltonian_lhxc_calculate                 :   141     4514.90s  32.529%  ------ ||
|| lnv_denskernel_optimise_cg                 :    14     5697.89s  41.052%  ------ ||
|| ngwf_gradient_build_batch                  :    84     5807.70s  41.843%  ------ ||
|| ngwf_gradient_batch                        :    84     6176.02s  44.497%  ------ ||
|| ngwf_gradient_lnv                          :    14     6349.47s  45.747%  ------ ||
|| ngwf_cg_optimise                           :     1    13226.98s  95.298%  ------ ||
|| energy_and_forces                          :     1    13862.73s  99.878%  ------ ||
|| total_time                                 :     1    13879.60s 100.000%  ------ ||
======================================================================================
Overhead of generating timer report: 
- 0 ms averaging over threads,
- 0 ms ensuring consistency across MPI ranks,
- 0 ms printing in order.

Job completed: 28-06-2025 15:52 (+0100)

onetep_launcher: ONETEP seems to have finished correctly (zero exit code).
                 Brought to you by PID 254455 on nid006527.
