==================================================================================
It's Sat 28 Jun 2025 12:10:54 PM BST.
*** Starting onetep_launcher (node nid005548, PIDs 160381 160382 160383 160384 160385 160386)...
    - ONETEP arguments: Fe_EtOH_3_HighSpin_NGWFSP.dat
    - Current directory: /mnt/lustre/a2fs-work3/work/e89/e89/phsmea/onetep_ali/Fe_EtOH_3/HS/sp
    - Launcher executable directory: /mnt/lustre/a2fs-work3/work/e89/e89/phsmea/onetep_ali
    - (-e) ONETEP executable specified through command-line: /work/e89/e89/phsmea/onetep.archer2_2024_cray_2
      ... trying /work/e89/e89/phsmea/onetep.archer2_2024_cray_2
          -> looks OK
*** Setting up environment...
    - (-s) Process stack size: unlimited
    - (-t) OMP_NUM_THREADS: 8
    - (-o) OMP_STACKSIZE: 64M
    - (-c) Maximum core file size: 2048000
    - (-d) decfort_dump_flag: n
    - (-m) I_MPI_OFA_TRANSLATION_CACHE: 0
    - (-m) I_MPI_DAPL_TRANSLATION_CACHE: 0
    - (-m) I_MPI_DAPL_UD_TRANSLATION_CACHE: 0
*** Starting ONETEP...
    - /work/e89/e89/phsmea/onetep.archer2_2024_cray_2 Fe_EtOH_3_HighSpin_NGWFSP.dat
=================================================================================
_________________________________________________________________________________
 +---------------------------------------------------------------+
 |                                                               |
 |        ####### #     # ####### ####### ####### ######         |
 |        #     # ##    # #          #    #       #     #        |
 |        #     # # #   # #          #    #       #     #        |
 |        #     # #  #  # #####      #    #####   ######         |
 |        #     # #   # # #          #    #       #              |
 |        #     # #    ## #          #    #       #              |
 |        ####### #     # #######    #    ####### #              |
 |                                                               |
 |        Linear-Scaling Ab Initio Total Energy Program          |
 |                                                               |
 |          Release for academic collaborators of ODG            |
 |                                             Version 7.3.0     |
 | Remote: git@github.com:Miesaz/onetep_mea.git                  |
 | Local branch: master                                          |
 | Commit ID: 4af45e89288c8df5499704252eec3e032ee3d0c8           |
 | Date: Tue Aug 6 11:28:44 2024 +0100                           |
 | Locally modified files:                                       |
 |   src/hubbard_build_mod.F90                                   |
 |   src/services_mod.F90                                        |
 |                                                               |
 +---------------------------------------------------------------+
 |                                                               |
 |  Authors:                                                     |
 |  Jacek Dziedzic, Peter D. Haynes, Nicholas D. M. Hine,        |
 |  Arash A. Mostofi, Mike C. Payne and Chris-Kriton Skylaris    |
 |                                                               |
 |  Contributors:                                                |
 |  J. Aarons, L. Andrinopoulos, P. W. Avraam, R. A. Bell,       |
 |  A. Bhandari, G. A. Bramley, R. J. Charlton, S. J. Clark,     |
 |  R. J. Clements, G. C. Constantinescu, F. Corsetti,           |
 |  N. Corsini, O. Dieguez, S. M. M. Dubois, K. K. B. Duff,      |
 |  J. M. Escartin, M. Escobar Azor, A. Greco,                   |
 |  H. Helal, Q. O. Hill, L. P. Lee, J.-H. Li,                   |
 |  T. Li, E. B. Linscott, G. Moynihan, D. D. O`Regan,           |
 |  O. K. Okan, E. Parkinson, M. J. S. Phipps,                   |
 |  C. J. Pickard, J. C. A. Prentice, M. I. J. Probert,          |
 |  L. E. Ratcliff, M. Robinson, A. Ruiz Serrano,                |
 |  M. dos Santos Dias, J. S. Spencer, E. W. Tait,               |
 |  G. Teobaldi, D. Turban, V. Vitale, K. A. Wilkinson,          |
 |  C. Weber, J. C. Womack, Chengcheng Xiao, N. Yeung,           |
 |  and T. J. Zuehlsdorff.                                       |
 |                                                               |
 |                                   Copyright (c) 2004-2025     |
 |                                                               |
 |  Please cite:                                                 |
 |  "The ONETEP linear-scaling density functional theory program"|
 |   J. Chem. Phys. 152(17) 174111 (2020)                        |
 |                                                               |
 |          in all publications arising from your use of ONETEP. |
 |                                                               |
 +---------------------------------------------------------------+
 |                                                               |
 |   ONETEP is based on developments described in the following  |
 |   publications:                                               |
 |                                                               |
 |  "Nonorthogonal generalized Wannier function pseudopotential  |
 |   plane-wave method".                                         |
 |   C.-K. Skylaris, A. A. Mostofi, P. D. Haynes, O. Dieguez,    |
 |   M. C. Payne.                                                |
 |   Phys. Rev. B 66 035119 (2002).                              |
 |                                                               |
 |  "Preconditioned iterative minimization for linear-scaling    |
 |   electronic structure calculations".                         |
 |   A. A. Mostofi, P. D. Haynes, C.-K. Skylaris, M. C. Payne.   |
 |   J. Chem. Phys. 119(17), pp.8842-8848 (2003).                |
 |                                                               |
 |  "Total-energy calculations on a real space grid with         |
 |   localized functions and a plane-wave basis".                |
 |   A. A. Mostofi, C.-K. Skylaris, P. D. Haynes, M. C. Payne.   |
 |   Comput. Phys. Commun. 147, pp.788-802 (2002).               |
 |                                                               |
 |  "Accurate kinetic energy evaluation in electronic structure  |
 |   calculations with localized functions on real space grids"  |
 |   C.-K. Skylaris, A. A. Mostofi, P. D. Haynes, C. J. Pickard, |
 |   M. C. Payne.                                                |
 |   Comput. Phys. Commun. 140, pp.315-322 (2001).               |
 |                                                               |
 |  "Accurate ionic forces and geometry optimization in linear-  |
 |   scaling density-functional theory with local orbitals"      |
 |   N. D. M. Hine, M. Robinson, P. D. Haynes, C.-K. Skylaris,   |
 |   M. C. Payne, and A. A. Mostofi.                             |
 |   Phys. Rev. B 83 195102 (2011).                              |
 |                                                               |
 +---------------------------------------------------------------+

Job started: 28-06-2025 12:10 (+0100)
 
Reading parameters from file "Fe_EtOH_3_HighSpin_NGWFSP.dat" ...... done

If your calculation crashes here, before "Checking processes and threads..."
is displayed, then your stack size is insufficient.
If so, use "ulimit -s unlimited" at runtime.
You can disable this check with "check_stack_size F".

Checking processes and threads...
   Determining the default number of threads...
      No default threads set at compilation time: defaulting to 1.
      OpenMP library call suggests 8 threads.
      Hybrid MPI-OpenMP compilation detected.
      Number of MPI processes > 1.
      OMP_NUM_THREADS environment variable present and
      its value matches the one obtained from the OpenMP library call.
      Using this value as default.
      Default threads: 8
      Default applies to threads_max and threads_num_fftboxes.
      Settings in the input file override this default.
   ... done

   Running with 6 MPI processes.
   There are 6 MPI processes running on the same node as the root process.
   Each MPI process is using: 
               1 threads for simulation cell FFTs.
               1 threads for threaded FFT box operations.
               8 threads for loops over batched FFT box operations.
               8 threads in other parallel regions.
   MPI Interface: S1 (use mpi_f08) (-DMPI -DUSE_MPI_F08).
   MPI_ASYNC_PROTECTS_NONBLOCKING: Yes. MPI_SUBARRAYS_SUPPORTED: Yes.
   FFTW Interface: OMP-capable and MODERN. (-DUSE_MODERN_FFTW specified).
   GPU Interface: None.
   GPU FFT Backend: None.
... done

Basic input checks...... done

Reading geometry and species blocks from file "Fe_EtOH_3_HighSpin_NGWFSP.dat" ...
  <species_atomic_set> block not found: NGWF initialisation set to SOLVE
    
  Number of PPD points along a3 set to 1.  This is 
  the default value, it may have been provided also in the input file.
... done


--------------------------------------------------------------------------------
---------------------------------- INPUT FILE ----------------------------------
--------------------------------------------------------------------------------

charge : 3                                                                      
cutoff_energy : 800 eV                                                          
do_properties : T                                                               
edft : F                                                                        
fine_grid_scale : 4                                                             
forces_output_detail : VERBOSE                                                  
output_detail : VERBOSE                                                         
paw : T                                                                         
pseudo_path : ../../../                                                         
spin : 5                                                                        
task : SINGLEPOINT                                                              
write_denskern : T                                                              
write_forces : T                                                                
write_tightbox_ngwfs : T                                                        
xc_functional : pbe                                                             
ngwfs_spin_polarised: T                                                         
%BLOCK HUBBARD                                                                  
Fe 2 4.0 0 -10 0 0                                                              
%ENDBLOCK HUBBARD                                                               
%BLOCK LATTICE_CART                                                             
ang                                                                             
27.84119898       0.00000000       0.00000000                                   
0.00000000      27.95738238       0.00000000                                    
0.00000000       0.00000000      26.56600724                                    
%ENDBLOCK LATTICE_CART                                                          
%BLOCK POSITIONS_ABS                                                            
ang                                                                             
Fe    13.173884    13.742508    12.629390                                       
O    12.487003    15.216457    11.715548                                        
O    12.021656    12.839535    13.778607                                        
O    14.949022    13.183696    12.458749                                        
H    11.521437    15.321142    11.607960                                        
C    16.135330    13.476680    11.401376                                        
H    11.206058    13.268654    14.103332                                        
C    13.110809    16.518993    10.952886                                        
H    15.349026    12.583928    13.117868                                        
C    11.991986    11.347914    14.495494                                        
H    13.410098    16.082048    10.000000                                        
H    13.954743    16.765435    11.596047                                        
C    12.052321    17.546968    10.871336                                        
H    11.199259    17.243452    10.257925                                        
H    12.520884    18.387317    10.331716                                        
H    11.741978    17.934890    11.842705                                        
H    12.512008    10.747941    13.750035                                        
C    10.582872    10.986856    14.735810                                        
H    12.589881    11.545131    15.385609                                        
H    10.000000    10.844665    13.824942                                        
H    10.077705    11.640593    15.452048                                        
H    10.640920    10.000000    15.229360                                        
H    16.598939    14.363538    11.835302                                        
H    15.578109    13.695123    10.491179                                        
C    17.003990    12.279982    11.334889                                        
H    17.512942    12.062730    12.278314                                        
H    17.801382    12.548706    10.622897                                        
H    16.503286    11.398566    10.932556                                        
%ENDBLOCK POSITIONS_ABS                                                         
%BLOCK SPECIES                                                                  
C C 6 -1 10.0                                                                   
Fe Fe 26 -1 10.0                                                                
H H 1 -1 10.0                                                                   
O O 8 -1 10.0                                                                   
%ENDBLOCK SPECIES                                                               
%BLOCK SPECIES_POT                                                              
C C.PBE-paw.abinit                                                              
Fe Fe.PBE-paw.abinit                                                            
H H.PBE-paw.abinit                                                              
O O.PBE-paw.abinit                                                              
%ENDBLOCK SPECIES_POT                                                           

--------------------------------------------------------------------------------
-------------------------------- END INPUT FILE --------------------------------
--------------------------------------------------------------------------------


 
 ESDF WARNING(1): "charge" (esdf_physical) has no units. Assume "e".
<<<<<<<<<<<<<<<<<<<<<<<<<<<<<<<<< Full system >>>>>>>>>>>>>>>>>>>>>>>>>>>>>>>>>>
<<<<<<<<<<<<<<<<<<<<<<<<<<< PAW Dataset information >>>>>>>>>>>>>>>>>>>>>>>>>>>
File: Fe.PBE-paw.abinit; rc = 2.12 bohr; shape type =  2; rshape = 1.81 bohr;
  Atomic number: 26;  ionic charge: 16.000000
    Partial Wave 1: l = 0
    Partial Wave 2: l = 0
    Partial Wave 3: l = 1
    Partial Wave 4: l = 1
    Partial Wave 5: l = 2
    Partial Wave 6: l = 2
  Core charge supplied for Nonlinear Core Corrections
File: O.PBE-paw.abinit; rc = 1.41 bohr; shape type =  2; rshape = 1.20 bohr;
  Atomic number:  8;  ionic charge:  6.000000
    Partial Wave 1: l = 0
    Partial Wave 2: l = 0
    Partial Wave 3: l = 1
    Partial Wave 4: l = 1
  Core charge supplied for Nonlinear Core Corrections
File: H.PBE-paw.abinit; rc = 0.90 bohr; shape type =  2; rshape = 0.80 bohr;
  Atomic number:  1;  ionic charge:  1.000000
    Partial Wave 1: l = 0
    Partial Wave 2: l = 0
    Partial Wave 3: l = 1
File: C.PBE-paw.abinit; rc = 1.51 bohr; shape type =  2; rshape = 1.30 bohr;
  Atomic number:  6;  ionic charge:  4.000000
    Partial Wave 1: l = 0
    Partial Wave 2: l = 0
    Partial Wave 3: l = 1
    Partial Wave 4: l = 1
  Core charge supplied for Nonlinear Core Corrections
<<<<<<<<<<<<<<<<<<<<<<<<<<<<<<<<<<<<<<< >>>>>>>>>>>>>>>>>>>>>>>>>>>>>>>>>>>>>>>

-------------------------- Atom counting information ---------------------------
Symbol    Natoms    Nngwfs    Nprojs
  Fe         1        13        18
  O          3        12        24
  H         18        18        90
  C          6        24        48
.......   ......    ......    ......
Totals:     28        67       180
--------------------------------------------------------------------------------

=============================== PSINC grid sizes ===============================
                      Simulation cell:  105 x 105 x  99
                              FFT-box:  105 x 105 x  99
                                  PPD:    5 x   5 x   1
Grid space d1=  0.501068965054a0 (KE cutoff=  30.25582Eh = 823.30288eV)
Grid space d2=  0.503159963219a0 (KE cutoff=  30.00488Eh = 816.47424eV)
Grid space d3=  0.507095739121a0 (KE cutoff=  29.54092Eh = 803.84945eV)
================================================================================

********************* Fourier parallelisation information **********************
       Coarse grid (whole simulation cell) dimensions:    105   105    99
          Real-space ('12') slabs/proc (min max mean):     16    17    16
         Recip-space ('23') slabs/proc (min max mean):      8     9     8
********************************************************************************

********************* Fourier parallelisation information **********************
       Double grid (whole simulation cell) dimensions:    210   210   198
          Real-space ('12') slabs/proc (min max mean):     33    33    33
         Recip-space ('23') slabs/proc (min max mean):     17    18    17
********************************************************************************

********************* Fourier parallelisation information **********************
         Fine grid (whole simulation cell) dimensions:    420   420   396
          Real-space ('12') slabs/proc (min max mean):     66    66    66
         Recip-space ('23') slabs/proc (min max mean):     35    36    35
********************************************************************************

Atom SCF Calculation for C  : Z (AE atom) =   6 : Z (PS atom) =   4
Config String: 2s2.0 2p2.0
Orbitals (num,occ):  2     2.00 2.00
Orbitals   (num,l):  2        0    1
Real-space Grid (nr,dr,rmax): 1503    0.0066577896   10.0000000000
Spherical Bessel Basis (nsws,lmax,cutoff):   37    2  176.3967570603
Confining potential (l,width,scale):  0    3.0000000000  100.0000000000
Confining potential (l,width,scale):  1    3.0000000000  100.0000000000
  1         -5.4381308884   -1.2721298092    4.5135250045   -1.9381135692
  2         -5.3849331102   -1.3649505469    4.4159511708   -1.9005879768
  3         -5.3930021612   -1.3849430624    4.3947033354   -1.8924421815
  4         -5.4001802281   -1.3891927246    4.3902388137   -1.8907518289
  5         -5.4037205329   -1.3915457087    4.3877695258   -1.8898885469
  6         -5.4055416859   -1.3928069742    4.3864477540   -1.8894519912
  7         -5.4065002767   -1.3934742451    4.3857498837   -1.8892319620
  8         -5.4070074727   -1.3938267709    4.3853820092   -1.8891207968
  9         -5.4072763209   -1.3940130896    4.3851880206   -1.8890645345
 10         -5.4074189962   -1.3941116277    4.3850856600   -1.8890360408
 11         -5.4074947717   -1.3941637823    4.3850316039   -1.8890216105
 12         -5.4075350443   -1.3941914082    4.3850030336   -1.8890143059
 13         -5.4075564617   -1.3942060527    4.3849879208   -1.8890106114
 14         -5.4075678586   -1.3942138217    4.3849799198   -1.8890087446
 15         -5.4075739267   -1.3942179465    4.3849756804   -1.8890078024
 16         -5.4075771595   -1.3942201380    4.3849734321   -1.8890073276
 17         -5.4075788827   -1.3942213034    4.3849722389   -1.8890070886
 18         -5.4075798017   -1.3942219235    4.3849716050   -1.8890069685
 19         -5.4075802921   -1.3942222537    4.3849712680   -1.8890069082
 20         -5.4075805539   -1.3942224296    4.3849710888   -1.8890068781
 21         -5.4075806938   -1.3942225235    4.3849709933   -1.8890068630
 22         -5.4075807686   -1.3942225735    4.3849709424   -1.8890068555
Atom SCF converged after  22 iterations to a total energy of     -5.40758077

Atom SCF Calculation for Fe : Z (AE atom) =  26 : Z (PS atom) =  16
Config String: 3s2.0 3p6.0 3d6.0 4s2.0 4p0.0
Orbitals (num,occ):  5     2.00 6.00 6.00 2.00 0.00
Orbitals   (num,l):  5        0    1    2    0    1
Real-space Grid (nr,dr,rmax): 1503    0.0066577896   10.0000000000
Spherical Bessel Basis (nsws,lmax,cutoff):   37    4  176.3967570603
Confining potential (l,width,scale):  0    3.0000000000  100.0000000000
Confining potential (l,width,scale):  1    3.0000000000  100.0000000000
Confining potential (l,width,scale):  2    3.0000000000  100.0000000000
  1       -111.4005172118  -52.5575611559   72.2164000725   -4.0901868950
  2       -116.6635475262  -20.5601904919   91.7007084249   -2.2962490369
  3       -121.6156136875  -23.2753453277   92.4544705195   -2.7706732816
  4       -123.0066153699  -21.4164712440   94.7136519632   -2.9394413820
  5       -123.8168122141  -22.6370400734   94.1384349420   -3.0798102909
  6       -123.9055073486  -21.7222843370   94.9342614757   -3.0846520419
  7       -124.0956886241  -22.4138747628   94.4617720360   -3.1224050559
  8       -124.0492758687  -21.8887017510   94.8692044073   -3.1096545890
  9       -124.1222324005  -22.2877514631   94.5777385101   -3.1254730624
 10       -124.0894611846  -22.0431086758   94.7620026738   -3.1177312036
 11       -124.1066906466  -22.1417456915   94.6895757605   -3.1215019185
 12       -124.1027421480  -22.1090398813   94.7144439268   -3.1205307857
 13       -124.1039552528  -22.1131641559   94.7116547863   -3.1207645739
 14       -124.1041718268  -22.1127261003   94.7121170471   -3.1207931979
 15       -124.1043563153  -22.1126782042   94.7122440208   -3.1208211382
 16       -124.1044853288  -22.1126702816   94.7123114748   -3.1208409484
 17       -124.1045734258  -22.1126674103   94.7123551926   -3.1208545095
 18       -124.1046334193  -22.1126657134   94.7123845864   -3.1208637603
 19       -124.1046742816  -22.1126645462   94.7124045128   -3.1208700757
 20       -124.1047021281  -22.1126636961   94.7124180731   -3.1208743926
 21       -124.1047211147  -22.1126630559   94.7124273290   -3.1208773473
 22       -124.1047340666  -22.1126625637   94.7124336643   -3.1208793718
 23       -124.1047429056  -22.1126621807   94.7124380116   -3.1208807606
 24       -124.1047489402  -22.1126618812   94.7124410017   -3.1208817142
 25       -124.1047530616  -22.1126616468   94.7124430628   -3.1208823696
 26       -124.1047558771  -22.1126614637   94.7124444863   -3.1208828204
 27       -124.1047578011  -22.1126613212   94.7124454714   -3.1208831306
 28       -124.1047591161  -22.1126612109   94.7124461541   -3.1208833444
 29       -124.1047600152  -22.1126611259   94.7124466281   -3.1208834917
 30       -124.1047606300  -22.1126610607   94.7124469575   -3.1208835933
 31       -124.1047610504  -22.1126610110   94.7124471869   -3.1208836634
 32       -124.1047613380  -22.1126609733   94.7124473467   -3.1208837118
 33       -124.1047615347  -22.1126609447   94.7124474583   -3.1208837453
 34       -124.1047616693  -22.1126609232   94.7124475361   -3.1208837684
 35       -124.1047617614  -22.1126609071   94.7124475906   -3.1208837843
Atom SCF converged after  35 iterations to a total energy of   -124.10476176

Atom SCF Calculation for H  : Z (AE atom) =   1 : Z (PS atom) =   1
Config String: 1s1.0
Orbitals (num,occ):  1     1.00
Orbitals   (num,l):  1        0
Real-space Grid (nr,dr,rmax): 1503    0.0066577896   10.0000000000
Spherical Bessel Basis (nsws,lmax,cutoff):   37    2  176.3967570603
Confining potential (l,width,scale):  0    3.0000000000  100.0000000000
  1         -0.3348525927   -0.2401819449    0.2820953128   -0.2388448411
  2         -0.4038948821   -0.2405504229    0.2866889240   -0.2416217444
  3         -0.4360732773   -0.2390089543    0.2890729861   -0.2443653791
  4         -0.4497314704   -0.2383264046    0.2899315599   -0.2456060208
  5         -0.4551901081   -0.2381357631    0.2901452306   -0.2460489407
  6         -0.4573594294   -0.2381000300    0.2901742710   -0.2461947705
  7         -0.4582326910   -0.2381004501    0.2901659451   -0.2462415077
  8         -0.4585900702   -0.2381055523    0.2901559649   -0.2462564278
  9         -0.4587384807   -0.2381092319    0.2901497571   -0.2462612174
 10         -0.4588008132   -0.2381112609    0.2901465144   -0.2462627659
 11         -0.4588272086   -0.2381122698    0.2901449456   -0.2462632682
 12         -0.4588384507   -0.2381127465    0.2901442163   -0.2462634302
 13         -0.4588432580   -0.2381129655    0.2901438848   -0.2462634814
 14         -0.4588453195   -0.2381130645    0.2901437362   -0.2462634968
 15         -0.4588462053   -0.2381131088    0.2901436700   -0.2462635011
 16         -0.4588465865   -0.2381131284    0.2901436407   -0.2462635020
 17         -0.4588467508   -0.2381131372    0.2901436278   -0.2462635020
 18         -0.4588468216   -0.2381131410    0.2901436222   -0.2462635019
Atom SCF converged after  18 iterations to a total energy of     -0.45884682

Atom SCF Calculation for O  : Z (AE atom) =   8 : Z (PS atom) =   6
Config String: 2s2.0 2p4.0
Orbitals (num,occ):  2     2.00 4.00
Orbitals   (num,l):  2        0    1
Real-space Grid (nr,dr,rmax): 1503    0.0066577896   10.0000000000
Spherical Bessel Basis (nsws,lmax,cutoff):   37    2  176.3967570603
Confining potential (l,width,scale):  0    3.0000000000  100.0000000000
Confining potential (l,width,scale):  1    3.0000000000  100.0000000000
  1         -8.3209332552   -7.4828484739   10.1554312602   -2.1270270195
  2        -15.1405599232   -3.0474882742   13.6590820486   -2.5134754209
  3        -15.5174094640   -3.1101891961   13.6243211040   -2.6472956001
  4        -15.7606118231   -3.0805775314   13.6668776248   -2.7100307789
  5        -15.8308896490   -3.0881936416   13.6633910567   -2.7338682066
  6        -15.8678540393   -3.0862312957   13.6673103078   -2.7443897972
  7        -15.8801393942   -3.0873360689   13.6669183555   -2.7485230919
  8        -15.8859601688   -3.0872977830   13.6672813272   -2.7502957173
  9        -15.8880580832   -3.0874730763   13.6672320183   -2.7510066526
 10        -15.8889924584   -3.0874981416   13.6672623218   -2.7513066537
 11        -15.8893459980   -3.0875277929   13.6672548500   -2.7514284384
 12        -15.8894977936   -3.0875355600   13.6672566096   -2.7514793465
 13        -15.8895569380   -3.0875407304   13.6672553199   -2.7515001537
 14        -15.8895817884   -3.0875424467   13.6672552475   -2.7515088021
 15        -15.8895916441   -3.0875433561   13.6672550136   -2.7515123499
 16        -15.8895957327   -3.0875436929   13.6672549605   -2.7515138192
 17        -15.8895973717   -3.0875438525   13.6672549179   -2.7515144231
 18        -15.8895980466   -3.0875439149   13.6672549044   -2.7515146726
 19        -15.8895983189   -3.0875439428   13.6672548968   -2.7515147752
 20        -15.8895984306   -3.0875439540   13.6672548940   -2.7515148175
 21        -15.8895984758   -3.0875439588   13.6672548927   -2.7515148349
Atom SCF converged after  21 iterations to a total energy of    -15.88959848

Atom SCF Calculation for C  : Z (AE atom) =   6 : Z (PS atom) =   4
Config String: 2s2.0 2p2.0
Orbitals (num,occ):  2     2.00 2.00
Orbitals   (num,l):  2        0    1
Real-space Grid (nr,dr,rmax): 1503    0.0066577896   10.0000000000
Spherical Bessel Basis (nsws,lmax,cutoff):   37    2  176.3967570603
Confining potential (l,width,scale):  0    3.0000000000  100.0000000000
Confining potential (l,width,scale):  1    3.0000000000  100.0000000000
  1         -5.4381308884   -1.2721298092    4.5135250045   -1.9381135692
  2         -5.3849331102   -1.3649505469    4.4159511708   -1.9005879768
  3         -5.3930021612   -1.3849430624    4.3947033354   -1.8924421815
  4         -5.4001802281   -1.3891927246    4.3902388137   -1.8907518289
  5         -5.4037205329   -1.3915457087    4.3877695258   -1.8898885469
  6         -5.4055416859   -1.3928069742    4.3864477540   -1.8894519912
  7         -5.4065002767   -1.3934742451    4.3857498837   -1.8892319620
  8         -5.4070074727   -1.3938267709    4.3853820092   -1.8891207968
  9         -5.4072763209   -1.3940130896    4.3851880206   -1.8890645345
 10         -5.4074189962   -1.3941116277    4.3850856600   -1.8890360408
 11         -5.4074947717   -1.3941637823    4.3850316039   -1.8890216105
 12         -5.4075350443   -1.3941914082    4.3850030336   -1.8890143059
 13         -5.4075564617   -1.3942060527    4.3849879208   -1.8890106114
 14         -5.4075678586   -1.3942138217    4.3849799198   -1.8890087446
 15         -5.4075739267   -1.3942179465    4.3849756804   -1.8890078024
 16         -5.4075771595   -1.3942201380    4.3849734321   -1.8890073276
 17         -5.4075788827   -1.3942213034    4.3849722389   -1.8890070886
 18         -5.4075798017   -1.3942219235    4.3849716050   -1.8890069685
 19         -5.4075802921   -1.3942222537    4.3849712680   -1.8890069082
 20         -5.4075805539   -1.3942224296    4.3849710888   -1.8890068781
 21         -5.4075806938   -1.3942225235    4.3849709933   -1.8890068630
 22         -5.4075807686   -1.3942225735    4.3849709424   -1.8890068555
Atom SCF converged after  22 iterations to a total energy of     -5.40758077

Atom SCF Calculation for Fe : Z (AE atom) =  26 : Z (PS atom) =  16
Config String: 3s2.0 3p6.0 3d6.0 4s2.0 4p0.0
Orbitals (num,occ):  5     2.00 6.00 6.00 2.00 0.00
Orbitals   (num,l):  5        0    1    2    0    1
Real-space Grid (nr,dr,rmax): 1503    0.0066577896   10.0000000000
Spherical Bessel Basis (nsws,lmax,cutoff):   37    4  176.3967570603
Confining potential (l,width,scale):  0    3.0000000000  100.0000000000
Confining potential (l,width,scale):  1    3.0000000000  100.0000000000
Confining potential (l,width,scale):  2    3.0000000000  100.0000000000
  1       -111.4005172118  -52.5575611559   72.2164000725   -4.0901868950
  2       -116.6635475262  -20.5601904919   91.7007084249   -2.2962490369
  3       -121.6156136875  -23.2753453277   92.4544705195   -2.7706732816
  4       -123.0066153699  -21.4164712440   94.7136519632   -2.9394413820
  5       -123.8168122141  -22.6370400734   94.1384349420   -3.0798102909
  6       -123.9055073486  -21.7222843370   94.9342614757   -3.0846520419
  7       -124.0956886241  -22.4138747628   94.4617720360   -3.1224050559
  8       -124.0492758687  -21.8887017510   94.8692044073   -3.1096545890
  9       -124.1222324005  -22.2877514631   94.5777385101   -3.1254730624
 10       -124.0894611846  -22.0431086758   94.7620026738   -3.1177312036
 11       -124.1066906466  -22.1417456915   94.6895757605   -3.1215019185
 12       -124.1027421480  -22.1090398813   94.7144439268   -3.1205307857
 13       -124.1039552528  -22.1131641559   94.7116547863   -3.1207645739
 14       -124.1041718268  -22.1127261003   94.7121170471   -3.1207931979
 15       -124.1043563153  -22.1126782042   94.7122440208   -3.1208211382
 16       -124.1044853288  -22.1126702816   94.7123114748   -3.1208409484
 17       -124.1045734258  -22.1126674103   94.7123551926   -3.1208545095
 18       -124.1046334193  -22.1126657134   94.7123845864   -3.1208637603
 19       -124.1046742816  -22.1126645462   94.7124045128   -3.1208700757
 20       -124.1047021281  -22.1126636961   94.7124180731   -3.1208743926
 21       -124.1047211147  -22.1126630559   94.7124273290   -3.1208773473
 22       -124.1047340666  -22.1126625637   94.7124336643   -3.1208793718
 23       -124.1047429056  -22.1126621807   94.7124380116   -3.1208807606
 24       -124.1047489402  -22.1126618812   94.7124410017   -3.1208817142
 25       -124.1047530616  -22.1126616468   94.7124430628   -3.1208823696
 26       -124.1047558771  -22.1126614637   94.7124444863   -3.1208828204
 27       -124.1047578011  -22.1126613212   94.7124454714   -3.1208831306
 28       -124.1047591161  -22.1126612109   94.7124461541   -3.1208833444
 29       -124.1047600152  -22.1126611259   94.7124466281   -3.1208834917
 30       -124.1047606300  -22.1126610607   94.7124469575   -3.1208835933
 31       -124.1047610504  -22.1126610110   94.7124471869   -3.1208836634
 32       -124.1047613380  -22.1126609733   94.7124473467   -3.1208837118
 33       -124.1047615347  -22.1126609447   94.7124474583   -3.1208837453
 34       -124.1047616693  -22.1126609232   94.7124475361   -3.1208837684
 35       -124.1047617614  -22.1126609071   94.7124475906   -3.1208837843
Atom SCF converged after  35 iterations to a total energy of   -124.10476176

Atom SCF Calculation for H  : Z (AE atom) =   1 : Z (PS atom) =   1
Config String: 1s1.0
Orbitals (num,occ):  1     1.00
Orbitals   (num,l):  1        0
Real-space Grid (nr,dr,rmax): 1503    0.0066577896   10.0000000000
Spherical Bessel Basis (nsws,lmax,cutoff):   37    2  176.3967570603
Confining potential (l,width,scale):  0    3.0000000000  100.0000000000
  1         -0.3348525927   -0.2401819449    0.2820953128   -0.2388448411
  2         -0.4038948821   -0.2405504229    0.2866889240   -0.2416217444
  3         -0.4360732773   -0.2390089543    0.2890729861   -0.2443653791
  4         -0.4497314704   -0.2383264046    0.2899315599   -0.2456060208
  5         -0.4551901081   -0.2381357631    0.2901452306   -0.2460489407
  6         -0.4573594294   -0.2381000300    0.2901742710   -0.2461947705
  7         -0.4582326910   -0.2381004501    0.2901659451   -0.2462415077
  8         -0.4585900702   -0.2381055523    0.2901559649   -0.2462564278
  9         -0.4587384807   -0.2381092319    0.2901497571   -0.2462612174
 10         -0.4588008132   -0.2381112609    0.2901465144   -0.2462627659
 11         -0.4588272086   -0.2381122698    0.2901449456   -0.2462632682
 12         -0.4588384507   -0.2381127465    0.2901442163   -0.2462634302
 13         -0.4588432580   -0.2381129655    0.2901438848   -0.2462634814
 14         -0.4588453195   -0.2381130645    0.2901437362   -0.2462634968
 15         -0.4588462053   -0.2381131088    0.2901436700   -0.2462635011
 16         -0.4588465865   -0.2381131284    0.2901436407   -0.2462635020
 17         -0.4588467508   -0.2381131372    0.2901436278   -0.2462635020
 18         -0.4588468216   -0.2381131410    0.2901436222   -0.2462635019
Atom SCF converged after  18 iterations to a total energy of     -0.45884682

Atom SCF Calculation for O  : Z (AE atom) =   8 : Z (PS atom) =   6
Config String: 2s2.0 2p4.0
Orbitals (num,occ):  2     2.00 4.00
Orbitals   (num,l):  2        0    1
Real-space Grid (nr,dr,rmax): 1503    0.0066577896   10.0000000000
Spherical Bessel Basis (nsws,lmax,cutoff):   37    2  176.3967570603
Confining potential (l,width,scale):  0    3.0000000000  100.0000000000
Confining potential (l,width,scale):  1    3.0000000000  100.0000000000
  1         -8.3209332552   -7.4828484739   10.1554312602   -2.1270270195
  2        -15.1405599232   -3.0474882742   13.6590820486   -2.5134754209
  3        -15.5174094640   -3.1101891961   13.6243211040   -2.6472956001
  4        -15.7606118231   -3.0805775314   13.6668776248   -2.7100307789
  5        -15.8308896490   -3.0881936416   13.6633910567   -2.7338682066
  6        -15.8678540393   -3.0862312957   13.6673103078   -2.7443897972
  7        -15.8801393942   -3.0873360689   13.6669183555   -2.7485230919
  8        -15.8859601688   -3.0872977830   13.6672813272   -2.7502957173
  9        -15.8880580832   -3.0874730763   13.6672320183   -2.7510066526
 10        -15.8889924584   -3.0874981416   13.6672623218   -2.7513066537
 11        -15.8893459980   -3.0875277929   13.6672548500   -2.7514284384
 12        -15.8894977936   -3.0875355600   13.6672566096   -2.7514793465
 13        -15.8895569380   -3.0875407304   13.6672553199   -2.7515001537
 14        -15.8895817884   -3.0875424467   13.6672552475   -2.7515088021
 15        -15.8895916441   -3.0875433561   13.6672550136   -2.7515123499
 16        -15.8895957327   -3.0875436929   13.6672549605   -2.7515138192
 17        -15.8895973717   -3.0875438525   13.6672549179   -2.7515144231
 18        -15.8895980466   -3.0875439149   13.6672549044   -2.7515146726
 19        -15.8895983189   -3.0875439428   13.6672548968   -2.7515147752
 20        -15.8895984306   -3.0875439540   13.6672548940   -2.7515148175
 21        -15.8895984758   -3.0875439588   13.6672548927   -2.7515148349
Atom SCF converged after  21 iterations to a total energy of    -15.88959848

BC: Task: SINGLEPOINT
BC: +++++++++++++++ Summary of boundary conditions ++++++++++++++
BC: |       Component       |     Keyword     |   Periodicity   |
BC: |                       |                 |     X  Y  Z [1] |
BC: |-----------------------------------------------------------|
BC: | Ion-ion               | ion_ion_bc [2]  |     P  P  P     |
BC: | Local pseudopotential | pspot_bc [3]    |     P  P  P     |
BC: +++++++++++++++++++++++++++++++++++++++++++++++++++++++++++++
BC: P: Periodic, O: Open.
BC: [1] Not strictly along X, Y, Z but rather along lattice vectors A1, A2, A3.
BC: [2] Also affected by: pbc_correction_cutoff, cutoff_coulomb_type,
BC:     is_smeared_ion_rep, is_implicit_solvent, openbc_ion_ion.
BC: [3] Also affected by: is_smeared_ion_rep, is_implicit_solvent, openbc_pspot.

Determining parallel strategy ...
... using space-filling curve
... NGWF load balancing: max     13;  min     10;  average     11
... Projector load balancing: max     38;  min     18;  average     30
... Hubbard Projector load balancing: max      5;  min      0;  average      1
... done
Calculating Ewald energy ...
              Ewald: real-space energy =          278.330967
        Ewald: reciprocal-space energy =           43.848049
         Ewald: (sum_charge)**2 energy =           18.336174
         Ewald: (sum_charge**2) energy =           16.058998
                          Ewald energy =          287.783842
Basis initialisation ...
... NGWF spheres initialised
... Projector spheres initialised
... Hubbard Projector spheres initialised
... NGWF tight boxes initialised
... Projector tight boxes initialised
... Tight-boxes gathered
... NGWF basis size (local,global):        185807       967257
... PAW projector initialisation
... done

============================= Charge Augmentation ==============================
                           Aug box size:   35 x  35 x  35
================================================================================
... Hubbard projector initialisation

========================== Sparse matrix information ===========================
                        Overlap matrix filling: 100.00%
                        Density kernel filling: 100.00% (known to be dense)
              NGWF-Proj overlap matrix filling:  76.35%
                    Aug Overlap matrix filling: 100.00%
      NGWF-Hubbard Proj overlap matrix filling: 100.00%
                             VW matrix filling: 100.00%
                    Hamiltonian matrix filling: 100.00%
                  NGWF diagonal matrix filling:   7.37%
                             KS matrix filling: 100.00% 
                           KSKS matrix filling: 100.00% 
================================================================================

Sparse matrix initialisation ...
 done
NGWF initialisation ... done
============ Calculation of NGWF S^-1 using Hotelling algorithm ================ 
     Iteration  |  Spin  |  Frobenius norm and Maximum abs value (of I-S*S_n^-1)
         1           1      0.78310568E+01     0.97187145E+00
         1           2      0.78310568E+01     0.97187145E+00
         2           1      0.75554089E+01     0.94455199E+00
         2           2      0.75554089E+01     0.94455199E+00
         3           1      0.71428801E+01     0.89224194E+00
         3           2      0.71428801E+01     0.89224194E+00
         4           1      0.65914788E+01     0.79630123E+00
         4           2      0.65914788E+01     0.79630123E+00
         5           1      0.59278266E+01     0.69510269E+00
         5           2      0.59278266E+01     0.69510269E+00
         6           1      0.52316867E+01     0.66773248E+00
         6           2      0.52316867E+01     0.66773248E+00
         7           1      0.46125638E+01     0.63631516E+00
         7           2      0.46125638E+01     0.63631516E+00
         8           1      0.40052497E+01     0.58502662E+00
         8           2      0.40052497E+01     0.58502662E+00
         9           1      0.32140446E+01     0.49843544E+00
         9           2      0.32140446E+01     0.49843544E+00
        10           1      0.21906212E+01     0.36429108E+00
        10           2      0.21906212E+01     0.36429108E+00
        11           1      0.10937027E+01     0.19762249E+00
        11           2      0.10937027E+01     0.19762249E+00
        12           1      0.31181344E+00     0.60719727E-01
        12           2      0.31181344E+00     0.60719727E-01
        13           1      0.33388947E-01     0.65057447E-02
        13           2      0.33388947E-01     0.65057447E-02
        14           1      0.53232128E-03     0.96480986E-04
        14           2      0.53232128E-03     0.96480986E-04
        15           1      0.16904364E-06     0.27904515E-07
        15           2      0.16904364E-06     0.27904515E-07
        16           1      0.20578359E-13     0.34416914E-14
        16           2      0.20578359E-13     0.34416914E-14
================================================================================
 done

################################################################################
DFT+U information on atom      1 of Hubbard species Fe  
################################################################################
Using the on-atom contravariant metric, the NGWF hydrogenic character
| < \phi | \psi > |**2 matrix of Hubbard site      1 is 
  m_l =   -2          -1           0           1           2         SUM
 -0.00000000 -0.00000000  0.00000000 -0.00000000  0.00000000  0.00000000
  0.00000000  0.00000000 -0.00000000  0.00000000 -0.00000001 -0.00000001
  0.00000000  0.00000000 -0.00000000  0.00000000 -0.00000000 -0.00000000
 -0.00000000  0.00000000 -0.00000001 -0.00000000 -0.00000002 -0.00000003
  0.51048151 -0.00000000  0.00000000  0.00000000 -0.00000000  0.51048151
 -0.00000000  0.51036464  0.00000000  0.00000000 -0.00000000  0.51036464
  0.00000000  0.00000000  0.51331813  0.00000000 -0.00000000  0.51331813
  0.00000000  0.00000000  0.00000000  0.51028194 -0.00000000  0.51028194
 -0.00000000 -0.00000000 -0.00000000 -0.00000000  0.51347606  0.51347606
 -0.00000000  0.00000000 -0.00000000  0.00000000  0.00000000 -0.00000000
  0.00000000 -0.00000000 -0.00000000 -0.00000000  0.00000001  0.00000000
 -0.00000000  0.00000000 -0.00000000  0.00000000  0.00000000 -0.00000000
  0.00000000 -0.00000000  0.00000000  0.00000000  0.00000001  0.00000001
Total hydrogenic projection of NGWFs on this atom             2.55792224
################################################################################


################################################################################
Using the subspace contravariant metric, the NGWF hydrogenic character
| < \phi | \psi > |**2 matrix of Hubbard site      1 is 
  m_l =   -2          -1           0           1           2         SUM
  0.51048122 -0.00000000  0.00000000  0.00000000 -0.00000000  0.51048122
 -0.00000000  0.51036442  0.00000000  0.00000000 -0.00000000  0.51036442
  0.00000000  0.00000000  0.51331785  0.00000000 -0.00000000  0.51331785
  0.00000000  0.00000000  0.00000000  0.51028173 -0.00000000  0.51028173
 -0.00000000 -0.00000000 -0.00000000 -0.00000000  0.51347558  0.51347558
Total hydrogenic projection of NGWFs on this correlated site  2.55792081
################################################################################

Calculating core density ...
================================= Core Density =================================
               Core den box size:   39 x  39 x  39
================================================================================
 ... done
Density renormalisation, spin  1 ...
Target Charge:    39.000000000000 ; Input Charge:    38.000447845725
Density renormalisation, spin  2 ...
Target Charge:    34.000000000000 ; Input Charge:    38.000447845725
Density kernel initialisation
 
======= Optimisation of K by Palser-Manolopoulos canonical purification ======== 
         Iteration  |  Band structure energy |    c_n   
               1         -37.51459369648935    0.5685145
               2         -38.52856885034341    0.5626325
               3         -39.68413551623555    0.5549142
               4         -40.97996420748171    0.5463525
               5         -42.49012041616515    0.5368429
               6         -44.24717770548018    0.5282940
               7         -46.07238122511200    0.5308124
               8         -47.53955977078549    0.5605979
               9         -48.31513523000558    0.6047549
              10         -48.62126996495919    0.6123867
              11         -48.77346526160655    0.5870692
              12         -48.86457641030411    0.5578606
              13         -48.90825846473798    0.5300026
              14         -48.92133113230348    0.5057735
              15         -48.92323316315502    0.5001570
              16         -48.92328363174470    0.5000001
              17         -48.92328366793046    0.4585096
              18         -48.92328366793046    0.4585096
Termination criterion satisfied: band energy change below threshold.
Final occupancy bounds: [    0.00000000000000:    1.00000000000000]
Closest occupancy to 0.5:     1.00000000000000
================================================================================
 
======= Optimisation of K by Palser-Manolopoulos canonical purification ======== 
         Iteration  |  Band structure energy |    c_n   
               1         -34.14293952753817    0.4944358
               2         -35.57014540582600    0.4876965
               3         -37.10349203668784    0.4810553
               4         -38.67548119029730    0.4805304
               5         -40.43631738188653    0.4888846
               6         -42.28288979120352    0.5190483
               7         -43.74514892937790    0.5828737
               8         -44.44222432840094    0.6411119
               9         -44.70916561036003    0.6681333
              10         -44.82925261159556    0.6603108
              11         -44.89809913974014    0.6198284
              12         -44.95609814846349    0.5662357
              13         -45.00672661239798    0.4953349
              14         -45.04599326796623    0.3611471
              15         -45.05850183094321    0.2466397
              16         -45.06049276537267    0.2408978
              17         -45.06123935205996    0.2620440
              18         -45.06200287630550    0.2890065
              19         -45.06278878313759    0.3222426
              20         -45.06357635022887    0.3623218
              21         -45.06433712477176    0.4084251
              22         -45.06502706905280    0.4549541
              23         -45.06557791543541    0.4882029
              24         -45.06591481182780    0.4991754
              25         -45.06602951944924    0.4999961
              26         -45.06604070605357    0.5000000
              27         -45.06604080178869    0.4999997
              28         -45.06604080179561    0.4999997
Termination criterion satisfied: band energy change below threshold.
Final occupancy bounds: [    0.00000000000000:    1.00000000000000]
Closest occupancy to 0.5:     1.00000000000000
================================================================================

Writing density kernel to file "Fe_EtOH_3_HighSpin_NGWFSP.dkn" ... done

>>> Optimising kernel for current NGWFs:
   Initial electron number for spin 1:      39.00000000
   Initial electron number for spin 2:      34.00000000
     Final electron number for spin 1:      39.00000000
     Final electron number for spin 2:      34.00000000

=================== Penalty functional idempotency correction ==================
 RMS occupancy error at iteration   1:  0.000000 (step -0.5000 Ne1=     39.0000)
                                                               Ne2=     34.0000
            Final RMS occupancy error   :  0.000000 (Ne1=     39.0000)
                                                     Ne2=     34.0000
            Final occupancy bounds spin 1: [  0.000,  1.000]
            Final occupancy bounds spin 2: [ -0.000,  1.000]
================================================================================

................................................................................
<<<<<<<<<<<<<< LNV (Original version) density kernel optimisation >>>>>>>>>>>>>>
~~~~~~~~~~~~~~~~~~~~~~~~~~~~~~~~~~~~~~~~~~~~~~~~~~~~~~~~~~~~~~~~~~~~~~~~~~~~~~~~
   iter  |      energy (Eh)       | rms gradient |  commutator  |   dE (Eh)

################################################################################
DFT+U information on atom      1 of Hubbard species Fe  
################################################################################
Occupancy matrix of Hubbard site      1 and spin      1 is 
  m_l =   -2          -1           0           1           2
  0.99932933 -0.00018415 -0.00023206  0.00058059  0.00027229
 -0.00018404  1.00011519 -0.00009345  0.00026003  0.00004943
 -0.00023191 -0.00009343  0.99994398  0.00028603 -0.00000589
  0.00058034  0.00026004  0.00028610  0.99921957  0.00010674
  0.00027232  0.00004946 -0.00000593  0.00010687  0.99962569
WARNING: OCCUPANCY MATRIX of Hubbard site      1 and spin      1 exceeeds 1.
################################################################################
Occupancy matrix of Hubbard site      1 and spin      2 is 
  m_l =   -2          -1           0           1           2
  0.99881090 -0.00032474 -0.00027528  0.00097217  0.00012961
 -0.00032459  0.99999525 -0.00007961  0.00035300  0.00008863
 -0.00027513 -0.00007960  0.99973865  0.00042612 -0.00013250
  0.00097177  0.00035302  0.00042621  0.99855136  0.00035066
  0.00012961  0.00008867 -0.00013265  0.00035095  0.99945168
################################################################################
Total occupancy of Hubbard site      1 is         9.99478158 e
Local magnetic moment of Hubbard site      1 is   0.00168591 mu_B
DFT+U energy of Hubbard site      1 is            0.00038284 Ha
################################################################################

      ideal mu1:      -0.043872946978
      ideal mu2:       0.080732029624
             Q0:        -207.732329214084
             G0:     -13.833841531452
   RMS gradient:       0.078507580533
    Initial Ne1:      39.00000000
    Initial Ne2:      34.00000000
      Final Ne1:      39.00000000
      Final Ne2:      34.00000000

=================== Penalty functional idempotency correction ==================
 RMS occupancy error at iteration   1:  0.003636 (step -0.4884 Ne1=     39.0000)
                                                               Ne2=     34.0000
 RMS occupancy error at iteration   2:  0.000029 (step -0.5000 Ne1=     39.0000)
                                                               Ne2=     34.0000
            Final RMS occupancy error   :  0.000000 (Ne1=     39.0000)
                                                     Ne2=     34.0000
            Final occupancy bounds spin 1: [  0.000,  1.000]
            Final occupancy bounds spin 2: [  0.000,  1.000]
================================================================================

    1        -2.077323292141E+02     7.8508E-02     5.1420E-02

################################################################################
DFT+U information on atom      1 of Hubbard species Fe  
################################################################################
Occupancy matrix of Hubbard site      1 and spin      1 is 
  m_l =   -2          -1           0           1           2
  0.99552795 -0.00077156 -0.00189576  0.00288540  0.00103152
 -0.00077121  0.99675948 -0.00079002 -0.00031475 -0.00064942
 -0.00189458 -0.00078984  0.99884721  0.00062989  0.00093789
  0.00288436 -0.00031469  0.00062990  0.99582799  0.00154644
  0.00103154 -0.00064980  0.00093876  0.00154744  0.99643957
################################################################################
Occupancy matrix of Hubbard site      1 and spin      2 is 
  m_l =   -2          -1           0           1           2
  0.99372530 -0.00123159 -0.00215764  0.00431711  0.00039343
 -0.00123109  0.99630984 -0.00073603 -0.00001343 -0.00053379
 -0.00215638 -0.00073590  0.99830029  0.00108669  0.00058951
  0.00431555 -0.00001335  0.00108676  0.99360396  0.00240039
  0.00039330 -0.00053413  0.00059008  0.00240193  0.99588006
################################################################################
Total occupancy of Hubbard site      1 is         9.96122165 e
Local magnetic moment of Hubbard site      1 is   0.00558276 mu_B
DFT+U energy of Hubbard site      1 is            0.00282968 Ha
################################################################################

      ideal mu1:      -0.158483987458
      ideal mu2:      -0.043694532758
             Q0:        -208.981673471746
             G0:     -19.843554785114
   RMS gradient:       0.069474305077
    Initial Ne1:      38.99999993
    Initial Ne2:      33.99999994
      Final Ne1:      39.00000000
      Final Ne2:      34.00000000

=================== Penalty functional idempotency correction ==================
 RMS occupancy error at iteration   1:  0.015867 (step -0.4507 Ne1=     39.0000)
                                                               Ne2=     34.0000
 RMS occupancy error at iteration   2:  0.000576 (step -0.5011 Ne1=     39.0000)
                                                               Ne2=     34.0000
 RMS occupancy error at iteration   3:  0.000003 (step -0.5000 Ne1=     39.0000)
                                                               Ne2=     34.0000
            Final RMS occupancy error   :  0.000000 (Ne1=     39.0000)
                                                     Ne2=     34.0000
            Final occupancy bounds spin 1: [  0.000,  1.000]
            Final occupancy bounds spin 2: [  0.000,  1.000]
================================================================================

    2        -2.089816734717E+02     6.9474E-02     4.5614E-02    -1.2493E+00

################################################################################
DFT+U information on atom      1 of Hubbard species Fe  
################################################################################
Occupancy matrix of Hubbard site      1 and spin      1 is 
  m_l =   -2          -1           0           1           2
  0.97608730 -0.00390698 -0.01057117  0.01407238  0.00494935
 -0.00390545  0.97702384 -0.00460121 -0.00421346 -0.00459580
 -0.01056458 -0.00460017  0.99251083  0.00172317  0.00641962
  0.01406755 -0.00421312  0.00172264  0.97839219  0.00939213
  0.00494932 -0.00459846  0.00642579  0.00939775  0.97916780
################################################################################
Occupancy matrix of Hubbard site      1 and spin      2 is 
  m_l =   -2          -1           0           1           2
  0.96933222 -0.00555619 -0.01164916  0.01927994  0.00225593
 -0.00555416  0.97504174 -0.00427042 -0.00317772 -0.00414472
 -0.01164224 -0.00426964  0.99055831  0.00333744  0.00523488
  0.01927327 -0.00317734  0.00333710  0.97035135  0.01249779
  0.00225529 -0.00414725  0.00524009  0.01250531  0.97708574
################################################################################
Total occupancy of Hubbard site      1 is         9.78555132 e
Local magnetic moment of Hubbard site      1 is   0.02081260 mu_B
DFT+U energy of Hubbard site      1 is            0.01519102 Ha
################################################################################

      ideal mu1:      -0.358615386535
      ideal mu2:      -0.272214593353
             Q0:        -210.627207345882
             G0:     -17.660137130669
   RMS gradient:       0.059590398296
    Initial Ne1:      38.99999995
    Initial Ne2:      33.99999995
      Final Ne1:      39.00000000
      Final Ne2:      34.00000000

=================== Penalty functional idempotency correction ==================
 RMS occupancy error at iteration   1:  0.032118 (step -0.4029 Ne1=     39.0000)
                                                               Ne2=     34.0000
 RMS occupancy error at iteration   2:  0.002426 (step -0.5046 Ne1=     39.0000)
                                                               Ne2=     34.0000
 RMS occupancy error at iteration   3:  0.000056 (step -0.5004 Ne1=     39.0000)
                                                               Ne2=     34.0000
            Final RMS occupancy error   :  0.000000 (Ne1=     39.0000)
                                                     Ne2=     34.0000
            Final occupancy bounds spin 1: [ -0.000,  1.000]
            Final occupancy bounds spin 2: [ -0.000,  1.000]
================================================================================

    3        -2.106272073459E+02     5.9590E-02     3.9250E-02    -1.6455E+00

################################################################################
DFT+U information on atom      1 of Hubbard species Fe  
################################################################################
Occupancy matrix of Hubbard site      1 and spin      1 is 
  m_l =   -2          -1           0           1           2
  0.92669380 -0.01188370 -0.03237118  0.04206936  0.01514627
 -0.01187918  0.92504110 -0.01424945 -0.01448736 -0.01518263
 -0.03235098 -0.01424629  0.97562936  0.00417314  0.02052705
  0.04205499 -0.01448632  0.00417109  0.93361327  0.02979118
  0.01514625 -0.01519139  0.02054687  0.02980874  0.93386027
################################################################################
Occupancy matrix of Hubbard site      1 and spin      2 is 
  m_l =   -2          -1           0           1           2
  0.90874666 -0.01609489 -0.03477390  0.05427219  0.00748225
 -0.01608926  0.91832095 -0.01253269 -0.01191270 -0.01359851
 -0.03475312 -0.01253056  0.96941206  0.00808618  0.01729903
  0.05425362 -0.01191159  0.00808464  0.91286336  0.03729066
  0.00748052 -0.01360672  0.01731631  0.03731274  0.92807343
################################################################################
Total occupancy of Hubbard site      1 is         9.33225424 e
Local magnetic moment of Hubbard site      1 is   0.05742134 mu_B
DFT+U energy of Hubbard site      1 is            0.04372766 Ha
################################################################################

      ideal mu1:      -0.580954957639
      ideal mu2:      -0.541497722847
             Q0:        -211.839096777801
             G0:     -11.651647175370
   RMS gradient:       0.051548365064
    Initial Ne1:      39.00000028
    Initial Ne2:      34.00000005
      Final Ne1:      39.00000000
      Final Ne2:      34.00000000

=================== Penalty functional idempotency correction ==================
 RMS occupancy error at iteration   1:  0.045219 (step -0.3638 Ne1=     39.0000)
                                                               Ne2=     34.0000
 RMS occupancy error at iteration   2:  0.004787 (step -0.5073 Ne1=     39.0000)
                                                               Ne2=     34.0000
 RMS occupancy error at iteration   3:  0.000219 (step -0.5016 Ne1=     39.0000)
                                                               Ne2=     34.0000
            Final RMS occupancy error   :  0.000000 (Ne1=     39.0000)
                                                     Ne2=     34.0000
            Final occupancy bounds spin 1: [ -0.000,  1.000]
            Final occupancy bounds spin 2: [ -0.000,  1.000]
================================================================================

    4        -2.118390967778E+02     5.1548E-02     3.4100E-02    -1.2119E+00

################################################################################
DFT+U information on atom      1 of Hubbard species Fe  
################################################################################
Occupancy matrix of Hubbard site      1 and spin      1 is 
  m_l =   -2          -1           0           1           2
  0.85061169 -0.02473617 -0.06512560  0.08408376  0.03184518
 -0.02472691  0.84097571 -0.02958358 -0.03113546 -0.03177062
 -0.06508486 -0.02957699  0.94777773  0.00740116  0.04209602
  0.08405492 -0.03113333  0.00739655  0.86327745  0.06196462
  0.03184552 -0.03178897  0.04213668  0.06200096  0.86115910
################################################################################
Occupancy matrix of Hubbard site      1 and spin      2 is 
  m_l =   -2          -1           0           1           2
  0.81639473 -0.03203056 -0.06756748  0.10175912  0.01642089
 -0.03201978  0.82455270 -0.02360347 -0.02625883 -0.02722987
 -0.06752695 -0.02359989  0.93160124  0.01377278  0.03521737
  0.10172435 -0.02625668  0.01376929  0.82484789  0.07339769
  0.01641805 -0.02724631  0.03525259  0.07344078  0.84898235
################################################################################
Total occupancy of Hubbard site      1 is         8.61018061 e
Local magnetic moment of Hubbard site      1 is   0.11742276 mu_B
DFT+U energy of Hubbard site      1 is            0.07981286 Ha
################################################################################

      ideal mu1:      -0.776268407715
      ideal mu2:      -0.770497435748
    5        -2.125226680924E+02     5.0713E-02     3.3444E-02    -6.8357E-01
Finished density kernel iterations (   5)

Writing density kernel to file "Fe_EtOH_3_HighSpin_NGWFSP.dkn" ... done


>>> Density kernel optimised for the current NGWF basis:
     ~~~~~~~~~~~~~~~~~~~~~~~~~~~~~~~~~~~~~~~~~~~~~~~~~~~~~~~~~~~
     Total energy                =  -2.12522668092403E+02  Eh
     Estimated bandgap (UP spin) =  -7.4111E-01  Eh
     Estimated bandgap (DN spin) =  -1.0921E+00  Eh
     RMS occupancy error         =   3.8651E-07
     [H,K] commutator            =   3.3444E-02
     UP spin occupancy bounds    = [ -0.000:  1.000]
     DN spin occupancy bounds    = [ -0.000:  1.000]
     ~~~~~~~~~~~~~~~~~~~~~~~~~~~~~~~~~~~~~~~~~~~~~~~~~~~~~~~~~~~




################################################################################
########################### NGWF CG iteration  001 #############################
################################################################################
****** Reciprocal space K.E. preconditioning with k_zero =  3.0000 a0^-1 *******

>>> Checking for convergence of NGWFs:   NOT CONVERGED
  ========================================================================
         NGWF RMS gradient =  1.3497E-03 >  2.0000E-06  | above tolerance
  ========================================================================

>>> Improving NGWFs using line search:
============ Calculation of NGWF S^-1 using Hotelling algorithm ================ 
     Iteration  |  Spin  |  Frobenius norm and Maximum abs value (of I-S*S_n^-1)
         1           1      0.69003710E-01     0.17273195E-01
         1           2      0.74011284E-01     0.17309968E-01
         2           1      0.70941248E-03     0.20515049E-03
         2           2      0.83312105E-03     0.21700887E-03
         3           1      0.14265306E-06     0.48296547E-07
         3           2      0.19406372E-06     0.50984789E-07
         4           1      0.88118919E-14     0.26645353E-14
         4           2      0.16092043E-13     0.46629367E-14
================================================================================

################################################################################
DFT+U information on atom      1 of Hubbard species Fe  
################################################################################
Occupancy matrix of Hubbard site      1 and spin      1 is 
  m_l =   -2          -1           0           1           2
  0.84462736 -0.02574907 -0.06735828  0.08752614  0.03315656
 -0.02573939  0.83552452 -0.03064787 -0.03188673 -0.03280047
 -0.06731616 -0.03064103  0.94563645  0.00795763  0.04328148
  0.08749607 -0.03188451  0.00795293  0.85746748  0.06426557
  0.03315696 -0.03281941  0.04332327  0.06430332  0.85570160
################################################################################
Occupancy matrix of Hubbard site      1 and spin      2 is 
  m_l =   -2          -1           0           1           2
  0.80794432 -0.03357319 -0.06973394  0.10590813  0.01656367
 -0.03356193  0.81738396 -0.02395598 -0.02674548 -0.02771850
 -0.06969218 -0.02395248  0.92784338  0.01467212  0.03584158
  0.10587189 -0.02674325  0.01466863  0.81635808  0.07629619
  0.01656067 -0.02773528  0.03587747  0.07634103  0.84248385
################################################################################
Total occupancy of Hubbard site      1 is         8.55097098 e
Local magnetic moment of Hubbard site      1 is   0.12694382 mu_B
DFT+U energy of Hubbard site      1 is            0.08231386 Ha
################################################################################

============ Calculation of NGWF S^-1 using Hotelling algorithm ================ 
     Iteration  |  Spin  |  Frobenius norm and Maximum abs value (of I-S*S_n^-1)
         1           1      0.53250307E+00     0.13391611E+00
         1           2      0.57061603E+00     0.13371033E+00
         2           1      0.42987915E-01     0.12880009E-01
         2           2      0.50068352E-01     0.13475500E-01
         3           1      0.56486721E-03     0.18594696E-03
         3           2      0.71961663E-03     0.20079714E-03
         4           1      0.13016530E-06     0.48371457E-07
         4           2      0.20167121E-06     0.55205783E-07
         5           1      0.10920453E-13     0.44547699E-14
         5           2      0.21198204E-13     0.65503158E-14
================================================================================
------------------------------- NGWF line search -------------------------------
RMS gradient                =       0.00134965586437
Trial step length           =               0.122474
Gradient along search dir.  =         -3.99867430135
Functional at step 0        =    -212.52266809240348
Functional at step 1        =    -212.98378917765956
Functional predicted        =    -214.61811752001373
Selected quadratic step     =               1.048072
Conjugate gradients coeff.  =               0.000000
--------------------------- NGWF line search finished --------------------------
                                               
Writing NGWFs to file "Fe_EtOH_3_HighSpin_NGWFSP.tightbox_ngwfs".... done

>>> Optimising kernel for current NGWFs:
   Initial electron number for spin 1:      39.46190559
   Initial electron number for spin 2:      34.40053854
     Final electron number for spin 1:      39.00000000
     Final electron number for spin 2:      34.00000000

=================== Penalty functional idempotency correction ==================
 RMS occupancy error at iteration   1:  0.009376 (step -0.4746 Ne1=     39.0000)
                                                               Ne2=     34.0000
 RMS occupancy error at iteration   2:  0.000251 (step -0.5003 Ne1=     39.0000)
                                                               Ne2=     34.0000
 RMS occupancy error at iteration   3:  0.000000 (step -0.5000 Ne1=     39.0000)
                                                               Ne2=     34.0000
            Final RMS occupancy error   :  0.000000 (Ne1=     39.0000)
                                                     Ne2=     34.0000
            Final occupancy bounds spin 1: [  0.000,  1.000]
            Final occupancy bounds spin 2: [  0.000,  1.000]
================================================================================

................................................................................
<<<<<<<<<<<<<< LNV (Original version) density kernel optimisation >>>>>>>>>>>>>>
~~~~~~~~~~~~~~~~~~~~~~~~~~~~~~~~~~~~~~~~~~~~~~~~~~~~~~~~~~~~~~~~~~~~~~~~~~~~~~~~
   iter  |      energy (Eh)       | rms gradient |  commutator  |   dE (Eh)

################################################################################
DFT+U information on atom      1 of Hubbard species Fe  
################################################################################
Occupancy matrix of Hubbard site      1 and spin      1 is 
  m_l =   -2          -1           0           1           2
  0.78806897 -0.03252326 -0.08185802  0.11125828  0.04278251
 -0.03251063  0.78460568 -0.03762631 -0.03593787 -0.03970036
 -0.08180690 -0.03761786  0.91536578  0.01237406  0.05037716
  0.11121949 -0.03593511  0.01236898  0.80144164  0.07979708
  0.04278360 -0.03972316  0.05042560  0.07984454  0.80230116
################################################################################
Occupancy matrix of Hubbard site      1 and spin      2 is 
  m_l =   -2          -1           0           1           2
  0.73180809 -0.04451952 -0.08314135  0.13385143  0.01695835
 -0.04450490  0.75174118 -0.02477243 -0.02888245 -0.02980791
 -0.08309223 -0.02477013  0.88356244  0.02152050  0.03830927
  0.13380522 -0.02887975  0.02151734  0.73928974  0.09589883
  0.01695439 -0.02982627  0.03834808  0.09595556  0.78045143
################################################################################
Total occupancy of Hubbard site      1 is         7.97863611 e
Local magnetic moment of Hubbard site      1 is   0.20493034 mu_B
DFT+U energy of Hubbard site      1 is            0.10505620 Ha
################################################################################

      ideal mu1:      -0.881106423953
      ideal mu2:      -0.896990933637
             Q0:        -214.484291698342
             G0:      -2.973995990111
   RMS gradient:       0.036400754401

################################################################################
DFT+U information on atom      1 of Hubbard species Fe  
################################################################################
Occupancy matrix of Hubbard site      1 and spin      1 is 
  m_l =   -2          -1           0           1           2
  0.85042609 -0.02659642 -0.05352673  0.08037729  0.02882180
 -0.02658559  0.87258239 -0.02629998 -0.01582511 -0.01662265
 -0.05349365 -0.02629342  0.94251642  0.01371937  0.02722591
  0.08034838 -0.01582317  0.01371776  0.85605316  0.05247802
  0.02882265 -0.01663267  0.02725143  0.05251045  0.87073103
################################################################################
Occupancy matrix of Hubbard site      1 and spin      2 is 
  m_l =   -2          -1           0           1           2
  0.74797283 -0.05244819 -0.05838170  0.12598563 -0.01751536
 -0.05243275  0.80451373 -0.00496847 -0.00731646  0.00040622
 -0.05835057 -0.00497279  0.88699755  0.03101541  0.00720916
  0.12594162 -0.00731436  0.03101708  0.74323574  0.08528864
 -0.01752396  0.00040336  0.00721888  0.08533984  0.83277825
################################################################################
Total occupancy of Hubbard site      1 is         8.40780721 e
Local magnetic moment of Hubbard site      1 is   0.37681099 mu_B
DFT+U energy of Hubbard site      1 is            0.08904559 Ha
################################################################################

     Trial step:       0.500000000000
             Q1:        -214.588006353635
 Quadratic coef:       1.383283339763
 Linear coef   :      -1.486997995056
           Qmin:        -214.883913918486
Quadratic minimum step length (  0.268744289820) accepted
    Initial Ne1:      39.00000000
    Initial Ne2:      34.00000000
      Final Ne1:      39.00000000
      Final Ne2:      34.00000000

=================== Penalty functional idempotency correction ==================
 RMS occupancy error at iteration   1:  0.007858 (step -0.4657 Ne1=     39.0000)
                                                               Ne2=     34.0000
 RMS occupancy error at iteration   2:  0.000119 (step -0.4998 Ne1=     39.0000)
                                                               Ne2=     34.0000
            Final RMS occupancy error   :  0.000000 (Ne1=     39.0000)
                                                     Ne2=     34.0000
            Final occupancy bounds spin 1: [  0.000,  1.000]
            Final occupancy bounds spin 2: [  0.000,  1.000]
================================================================================

    1        -2.144842916983E+02     3.6401E-02     2.3961E-02

################################################################################
DFT+U information on atom      1 of Hubbard species Fe  
################################################################################
Occupancy matrix of Hubbard site      1 and spin      1 is 
  m_l =   -2          -1           0           1           2
  0.82487721 -0.02972512 -0.06520267  0.09289951  0.03480496
 -0.02971329  0.83655607 -0.03179067 -0.02432859 -0.02501326
 -0.06516214 -0.03178294  0.93136518  0.01323969  0.03632482
  0.09286653 -0.02432627  0.01323671  0.83350420  0.06340541
  0.03480595 -0.02502803  0.03635924  0.06344389  0.84348870
################################################################################
Occupancy matrix of Hubbard site      1 and spin      2 is 
  m_l =   -2          -1           0           1           2
  0.74469797 -0.04869473 -0.06829493  0.12742565 -0.00163394
 -0.04867960  0.78616501 -0.01448105 -0.01633333 -0.01147169
 -0.06825640 -0.01448193  0.88734911  0.02655629  0.02012366
  0.12738130 -0.01633098  0.02655591  0.74529654  0.08824709
 -0.00164026 -0.01148062  0.02014525  0.08829980  0.81313219
################################################################################
Total occupancy of Hubbard site      1 is         8.24643218 e
Local magnetic moment of Hubbard site      1 is   0.29315053 mu_B
DFT+U energy of Hubbard site      1 is            0.09590696 Ha
################################################################################

      ideal mu1:      -0.828409859631
      ideal mu2:      -0.840744106923
             Q0:        -214.890665016418
             G0:      -1.025496718329
   RMS gradient:       0.020562541826

################################################################################
DFT+U information on atom      1 of Hubbard species Fe  
################################################################################
Occupancy matrix of Hubbard site      1 and spin      1 is 
  m_l =   -2          -1           0           1           2
  0.83403046 -0.03139862 -0.05866115  0.09121634  0.03378561
 -0.03138561  0.86619204 -0.02995650 -0.01496131 -0.01536437
 -0.05862495 -0.02994878  0.93829251  0.01685642  0.02807105
  0.09118301 -0.01495912  0.01685504  0.83735831  0.05948637
  0.03378710 -0.01537380  0.02809706  0.05952355  0.85730443
################################################################################
Occupancy matrix of Hubbard site      1 and spin      2 is 
  m_l =   -2          -1           0           1           2
  0.68700363 -0.06917809 -0.06121358  0.14405982 -0.03275971
 -0.06915918  0.75497907  0.00511523 -0.00534321  0.01376075
 -0.06118262  0.00510553  0.84734950  0.03916446 -0.00129505
  0.14400920 -0.00534089  0.03916801  0.67646249  0.10080367
 -0.03277139  0.01376387 -0.00129250  0.10086412  0.80070022
################################################################################
Total occupancy of Hubbard site      1 is         8.09967268 e
Local magnetic moment of Hubbard site      1 is   0.56668284 mu_B
DFT+U energy of Hubbard site      1 is            0.09953575 Ha
################################################################################

     Trial step:       0.366568063134
             Q1:        -215.198643478859
 Quadratic coef:       0.067935883347
 Linear coef   :      -0.375914345788
           Qmin:        -215.410683261588
Quadratic minimum step length (  1.014178272589) accepted
    Initial Ne1:      38.99999839
    Initial Ne2:      33.99999319
      Final Ne1:      39.00000000
      Final Ne2:      34.00000000

=================== Penalty functional idempotency correction ==================
 RMS occupancy error at iteration   1:  0.074168 (step -0.2656 Ne1=     39.0000)
                                                               Ne2=     34.0000
 RMS occupancy error at iteration   2:  0.012912 (step -0.4974 Ne1=     39.0000)
                                                               Ne2=     34.0000
 RMS occupancy error at iteration   3:  0.001510 (step -0.5135 Ne1=     39.0000)
                                                               Ne2=     34.0000
            Final RMS occupancy error   :  0.000017 (Ne1=     39.0000)
                                                     Ne2=     34.0000
            Final occupancy bounds spin 1: [ -0.000,  1.000]
            Final occupancy bounds spin 2: [ -0.000,  1.000]
================================================================================

    2        -2.148906650164E+02     2.0563E-02     1.4029E-02    -4.0637E-01

################################################################################
DFT+U information on atom      1 of Hubbard species Fe  
################################################################################
Occupancy matrix of Hubbard site      1 and spin      1 is 
  m_l =   -2          -1           0           1           2
  0.84078144 -0.03368722 -0.05120999  0.09306980  0.03411342
 -0.03367240  0.90701136 -0.02596513 -0.00006808 -0.00409152
 -0.05117892 -0.02595827  0.94726335  0.02301628  0.01797228
  0.09303438 -0.00006612  0.02301710  0.83617068  0.05789963
  0.03411591 -0.00409438  0.01798812  0.05793742  0.86869501
################################################################################
Occupancy matrix of Hubbard site      1 and spin      2 is 
  m_l =   -2          -1           0           1           2
  0.60983700 -0.09407665 -0.04834780  0.14585825 -0.06836719
 -0.09405345  0.69930052  0.02962523  0.00777402  0.05344735
 -0.04832820  0.02960505  0.77922812  0.05092342 -0.02754695
  0.14580577  0.00777613  0.05093205  0.58191545  0.10733767
 -0.06838441  0.05346937 -0.02756841  0.10740280  0.77767726
################################################################################
Total occupancy of Hubbard site      1 is         7.84788019 e
Local magnetic moment of Hubbard site      1 is   0.95196349 mu_B
DFT+U energy of Hubbard site      1 is            0.10341928 Ha
################################################################################

      ideal mu1:      -0.917987759423
      ideal mu2:      -0.950120775739
             Q0:        -215.430252125411
             G0:      -1.881230275710
   RMS gradient:       0.027604362116
========================= Kernel Line Step Protection ==========================
|  Iter |  Trial Step |   RMS Occupancy Error |   Occupancy Bounds | Accepted? |
    0        0.000000                0.000017    [ 1.0000: -0.0000]
[...]
*                       x            y            z      *
*                                                        *
*    Fe      1     -0.00000000  -0.00000000   0.00000000 *
*    O       2     -0.00000164  -0.00000229   0.00000142 *
*    O       3     -0.00000036   0.00000277  -0.00000130 *
*    O       4     -0.00000218  -0.00000099   0.00000225 *
*    H       5      0.00000000   0.00000000   0.00000000 *
*    C       6      0.01247503   0.00349986  -0.01027740 *
*    H       7      0.00000000   0.00000000   0.00000000 *
*    C       8      0.00603774   0.01275703  -0.00784044 *
*    H       9      0.00000000   0.00000000   0.00000000 *
*    C      10     -0.00006880  -0.01404605   0.00757137 *
*    H      11      0.00000000   0.00000000   0.00000000 *
*    H      12      0.00000000   0.00000000   0.00000000 *
*    C      13     -0.00376059   0.00420539  -0.00018700 *
*    H      14      0.00000000   0.00000000   0.00000000 *
*    H      15      0.00000000   0.00000000   0.00000000 *
*    H      16      0.00000000   0.00000000   0.00000000 *
*    H      17      0.00000000   0.00000000   0.00000000 *
*    C      18     -0.00523397  -0.00195852   0.00056710 *
*    H      19      0.00000000   0.00000000   0.00000000 *
*    H      20      0.00000000   0.00000000   0.00000000 *
*    H      21      0.00000000   0.00000000   0.00000000 *
*    H      22      0.00000000   0.00000000   0.00000000 *
*    H      23      0.00000000   0.00000000   0.00000000 *
*    H      24      0.00000000   0.00000000   0.00000000 *
*    C      25      0.00328048  -0.00445795  -0.00099647 *
*    H      26      0.00000000   0.00000000   0.00000000 *
*    H      27      0.00000000   0.00000000   0.00000000 *
*    H      28      0.00000000   0.00000000   0.00000000 *
*                                                        *
**********************************************************
TOTAL:              0.01272572  -0.00000077  -0.01116046
 
********************* Unconstrained **********************
********************** DFT+U forces **********************
*                                                        *
* Element  Atom         Cartesian components (Eh/a)      *
* ------------------------------------------------------ *
*                       x            y            z      *
*                                                        *
*    Fe      1      0.00108507  -0.00000228  -0.00062375 *
*    O       2      0.00000000   0.00000000   0.00000000 *
*    O       3      0.00000000   0.00000000   0.00000000 *
*    O       4      0.00000000   0.00000000   0.00000000 *
*    H       5      0.00000000   0.00000000   0.00000000 *
*    C       6      0.00000000   0.00000000   0.00000000 *
*    H       7      0.00000000   0.00000000   0.00000000 *
*    C       8      0.00000000   0.00000000   0.00000000 *
*    H       9      0.00000000   0.00000000   0.00000000 *
*    C      10      0.00000000   0.00000000   0.00000000 *
*    H      11      0.00000000   0.00000000   0.00000000 *
*    H      12      0.00000000   0.00000000   0.00000000 *
*    C      13      0.00000000   0.00000000   0.00000000 *
*    H      14      0.00000000   0.00000000   0.00000000 *
*    H      15      0.00000000   0.00000000   0.00000000 *
*    H      16      0.00000000   0.00000000   0.00000000 *
*    H      17      0.00000000   0.00000000   0.00000000 *
*    C      18      0.00000000   0.00000000   0.00000000 *
*    H      19      0.00000000   0.00000000   0.00000000 *
*    H      20      0.00000000   0.00000000   0.00000000 *
*    H      21      0.00000000   0.00000000   0.00000000 *
*    H      22      0.00000000   0.00000000   0.00000000 *
*    H      23      0.00000000   0.00000000   0.00000000 *
*    H      24      0.00000000   0.00000000   0.00000000 *
*    C      25      0.00000000   0.00000000   0.00000000 *
*    H      26      0.00000000   0.00000000   0.00000000 *
*    H      27      0.00000000   0.00000000   0.00000000 *
*    H      28      0.00000000   0.00000000   0.00000000 *
*                                                        *
**********************************************************
TOTAL:              0.00108507  -0.00000228  -0.00062375
 
********************* Unconstrained **********************
****** Correction to ensure the total force is zero ******
*                                                        *
* Element  Atom         Cartesian components (Eh/a)      *
* ------------------------------------------------------ *
*                       x            y            z      *
*                                                        *
*    Fe      1      0.00003396   0.00000971  -0.00000818 *
*    O       2      0.00003396   0.00000971  -0.00000818 *
*    O       3      0.00003396   0.00000971  -0.00000818 *
*    O       4      0.00003396   0.00000971  -0.00000818 *
*    H       5      0.00003396   0.00000971  -0.00000818 *
*    C       6      0.00003396   0.00000971  -0.00000818 *
*    H       7      0.00003396   0.00000971  -0.00000818 *
*    C       8      0.00003396   0.00000971  -0.00000818 *
*    H       9      0.00003396   0.00000971  -0.00000818 *
*    C      10      0.00003396   0.00000971  -0.00000818 *
*    H      11      0.00003396   0.00000971  -0.00000818 *
*    H      12      0.00003396   0.00000971  -0.00000818 *
*    C      13      0.00003396   0.00000971  -0.00000818 *
*    H      14      0.00003396   0.00000971  -0.00000818 *
*    H      15      0.00003396   0.00000971  -0.00000818 *
*    H      16      0.00003396   0.00000971  -0.00000818 *
*    H      17      0.00003396   0.00000971  -0.00000818 *
*    C      18      0.00003396   0.00000971  -0.00000818 *
*    H      19      0.00003396   0.00000971  -0.00000818 *
*    H      20      0.00003396   0.00000971  -0.00000818 *
*    H      21      0.00003396   0.00000971  -0.00000818 *
*    H      22      0.00003396   0.00000971  -0.00000818 *
*    H      23      0.00003396   0.00000971  -0.00000818 *
*    H      24      0.00003396   0.00000971  -0.00000818 *
*    C      25      0.00003396   0.00000971  -0.00000818 *
*    H      26      0.00003396   0.00000971  -0.00000818 *
*    H      27      0.00003396   0.00000971  -0.00000818 *
*    H      28      0.00003396   0.00000971  -0.00000818 *
*                                                        *
**********************************************************
TOTAL:              0.00095097   0.00027200  -0.00022893

********************* Unconstrained **********************
************************* Forces *************************
*                                                        *
* Element  Atom         Cartesian components (Eh/a)      *
* ------------------------------------------------------ *
*                       x            y            z      *
*                                                        *
*    Fe      1      0.00118144  -0.00001018  -0.00043062 *
*    O       2      0.00348985   0.00899688  -0.00608331 *
*    O       3     -0.00171383  -0.01072049   0.00582836 *
*    O       4      0.00863190   0.00147717  -0.00638807 *
*    H       5     -0.00903046   0.00096790  -0.00123769 *
*    C       6     -0.00193936  -0.00549197   0.00144441 *
*    H       7     -0.00699406   0.00411649   0.00338785 *
*    C       8     -0.00563924   0.00006331   0.00377824 *
*    H       9      0.00396634  -0.00530487   0.00617333 *
*    C      10     -0.00363413   0.00291085  -0.00288238 *
*    H      11      0.00221367  -0.00215685  -0.00514504 *
*    H      12      0.00483313   0.00105531   0.00242778 *
*    C      13      0.00164048  -0.00245320   0.00009863 *
*    H      14     -0.00392457  -0.00047934  -0.00277491 *
*    H      15      0.00175799   0.00396980  -0.00264007 *
*    H      16     -0.00142753   0.00194037   0.00407313 *
*    H      17      0.00304931  -0.00297563  -0.00303610 *
*    C      18      0.00192598   0.00157178  -0.00076199 *
*    H      19      0.00325525   0.00059316   0.00453227 *
*    H      20     -0.00254582  -0.00073082  -0.00370727 *
*    H      21     -0.00265214   0.00230129   0.00329787 *
*    H      22     -0.00005916  -0.00443945   0.00259295 *
*    H      23      0.00273893   0.00505330   0.00193449 *
*    H      24     -0.00240604   0.00202100  -0.00440504 *
*    C      25     -0.00176856   0.00185725   0.00080152 *
*    H      26      0.00295914  -0.00151772   0.00376686 *
*    H      27      0.00413297   0.00121584  -0.00300066 *
*    H      28     -0.00204149  -0.00383119  -0.00164453 *
*                                                        *
**********************************************************
* TOTAL:            0.00000000  -0.00000000  -0.00000000 *
**********************************************************
 
 
***********************************************************
********** Summary of Forces (values in Eh/a) *************
*                                                         *
* ---------------------- Minimum ------------------------ *
* Atom:         1, |F|min =    0.00125751                 *
* Components:     Fx|min       Fy|min       Fz|min        *
*               0.00118144  -0.00001018  -0.00043062      *
*                                                         *
* ---------------------- Maximum ------------------------ *
* Atom:         3, |F|max =    0.01232217                 *
* Components:     Fx|max       Fy|max       Fz|max        *
*              -0.00171383  -0.01072049   0.00582836      *
*                                                         *
* ---------------- Root Mean Square Force --------------- *
*                  |F|rms =    0.00651038                 *
* Components:     Fx|rms       Fy|rms       Fz|rms        *
*               0.00387767   0.00379380   0.00359942      *
***********************************************************
 

------------------------------ TIMING INFORMATION ------------------------------
AVERAGE TIME:    4506.356s on      6 proc(s)                                    
TOTAL TIME:      4506.356s on      6 proc(s)                                    
==================== AVERAGE TIMINGS FROM ALL PROCS (CUMULATIVE) =====================
|| TAG                                         #calls     cpu time   %total  Gflops ||
|| onetep.F90 main loop imbalance             :     1        0.00s   0.000%  ------ ||
|| hubbard_species_proj                       :     1        0.00s   0.000%  ------ ||
|| hubbard_projector_character                :     1        0.00s   0.000%  ------ ||
|| linalg_invert_sym_matrix                   :     4        0.00s   0.000%  ------ || (1 procs only)
|| hubbard_ngwf_on_grid                       :     1        0.00s   0.000%  ------ ||
|| hubbard_ngwf_select                        :     1        0.00s   0.000%  ------ ||
|| sparse_spam3toblacs_real_fast_imbal        :     6        0.00s   0.000%  ------ ||
|| hubbard_tensorial_correction               :     2        0.00s   0.000%  ------ ||
|| sparse_blacstospam3_real_fast_imbal        :    24        0.00s   0.000%  ------ ||
|| hash_table_free                            :    55        0.00s   0.000%  ------ ||
|| sparse_spam3toblacs_real_fast_B2           :    36        0.00s   0.000%  ------ ||
|| density_fftbox_interp_mult_imbal           :  7436        0.00s   0.000%  ------ ||
|| onetep.F90 final imbalance                 :     1        0.00s   0.000%  ------ ||
|| ewald_calculate_energy                     :     1        0.00s   0.000%  ------ ||
|| sw_bessel_init_cpu                         :     1        0.01s   0.000%  ------ || (1 procs only)
|| linalg_dsyev_lt                            :   282        0.01s   0.000%  ------ || (1 procs only)
|| sparse_init                                :     1        0.01s   0.000%  ------ ||
|| ewald_calculate_forces_realspace           :     1        0.01s   0.000%  ------ ||
|| sparse_set_to_garbage                      :  1202        0.02s   0.000%  ------ ||
|| paw_dij_hartree                            :   312        0.02s   0.000%  ------ ||
|| sparse_blacstospam3_real_fast              :    24        0.02s   0.000%  ------ ||
|| hubbard_projection_mtx                     :    57        0.02s   0.000%  ------ ||
|| sparse_spam3toblacs_real_fast_B1           :    36        0.03s   0.001%  ------ ||
|| linalg_dgemv                               :   127        0.03s   0.001%  ------ ||
|| augmentation_density_forces                :     1        0.05s   0.001%  ------ ||
|| sparse_spam3toblacs_real_fast              :     6        0.05s   0.001%  ------ ||
|| ewald_calculate_forces_recipspace          :     1        0.05s   0.001%  ------ ||
|| hubbard_ham_matrix                         :   142        0.06s   0.001%  ------ ||
|| basis_extract_function_from_box            :  1250        0.07s   0.001%  ------ ||
|| palser_mano_kernel_optimise_spam3_embed    :     2        0.07s   0.001%  ------ ||
|| sw_init                                    :   583        0.07s   0.002%  ------ ||
|| hubbard_projector_ham                      :   141        0.10s   0.002%  ------ ||
|| ewald_calculate_forces                     :     1        0.10s   0.002%  ------ ||
|| paw_tcore_density                          :     1        0.11s   0.002%  ------ ||
|| dense_eigensolve                           :     2        0.13s   0.003%  ------ ||
|| sparse_embed_array_hotelling_invert        :    55        0.16s   0.004%  ------ ||
|| pseudo_make_structure_factor               :     1        0.17s   0.004%  ------ ||
|| restart_kernel_write                       :    29        0.21s   0.005%  ------ ||
|| paw_tcore_hartree_on_grid                  :     1        0.32s   0.007%  ------ ||
|| hubbard_calculate_forces                   :     1        0.35s   0.008%  ------ ||
|| paw_sphere_density_on_grid                 :     1        0.35s   0.008%  ------ ||
|| ngwfs_initialise_from_radial               :     4        0.50s   0.011%  ------ ||
|| hubbard_energy_total                       :   282        0.52s   0.011%  ------ ||
|| lnv_gradient_norm                          :   140        0.56s   0.012%  ------ ||
|| paw_tcore_hartree_calc_forces              :     1        0.57s   0.013%  ------ ||
|| kernel_purify                              :   444        0.65s   0.014%  ------ ||
|| nonsc_forces_ngwfs_calc                    :     1        0.77s   0.017%  ------ ||
|| kernel_fix                                 :   140        0.92s   0.020%  ------ ||
|| integrals_grad_spam3                       :     4        1.08s   0.024%  ------ ||
|| sparse_trace                               : 12652        1.20s   0.027%  ------ ||
|| paw_dataset_init                           :     4        1.75s   0.039%  ------ ||
|| function_ops_brappd_ketppd_spam3           :   224        2.63s   0.058%  ------ ||
|| paw_species_calc_proj_prec_mat             :     1        2.86s   0.063%  ------ ||
|| ngwf_gradient_coeffs                       :    28        3.27s   0.073%  ------ ||
|| hubbard_projector_update                   :     1        3.31s   0.073%  ------ ||
|| sparse_product                             : 20932        3.38s   0.075%  ------ ||
|| paw_nlcc_calculate_forces                  :     1        3.50s   0.078%  ------ ||
|| restart_ngwfs_tightbox_output              :    27        4.73s   0.105%  ------ ||
|| projectors_func_grad_ovlp_box_spam3        :     6        4.84s   0.107%  ------ ||
|| aug_nl_calculate_forces                    :     1        4.97s   0.110%  ------ ||
|| eigenstates_calculate                      :     1        5.43s   0.121%  ------ ||
|| energy_and_force_init_cell                 :     1        7.61s   0.169%  ------ ||
|| basis_copy_function_to_box                 : 11950        8.92s   0.198%  ------ ||
|| fourier_apply_box_pair                     :  1923       11.09s   0.246% 113.893 ||
|| basis_dot_function_with_box                : 455.6k      12.39s   0.275%  ------ ||
|| augmentation_screen_dij_spam3              :   296       12.47s   0.277%  ------ ||
|| cell_grid_extract_box_real                 :  9235       15.95s   0.354%  ------ ||
|| basis_add_function_to_box                  : 601.8k      17.26s   0.383%  ------ ||
|| density_batch_row_sums                     :   572       17.40s   0.386%  ------ ||
|| integrals_kinetic_spam3                    :   110       18.27s   0.406%  ------ ||
|| density_init_guess_real                    :     2       19.88s   0.441%  ------ ||
|| forces_calculate                           :     1       21.02s   0.466%  ------ ||
|| aug_nonlocal_mat_spam3_embed_array         :   283       30.74s   0.682%  ------ ||
|| paw_dij_xc                                 :   312       33.32s   0.739%  ------ ||
|| cell_grid_deposit_box_real                 : 11801       35.84s   0.795%  ------ ||
|| aug_density_on_grid_spam3                  :   286       47.63s   1.057%  ------ ||
|| integrals_locpot_mat_els_batch             :   308       48.49s   1.076%  ------ ||
|| density_fftbox_deposit_to_cell             :  7436       56.75s   1.259%  ------ ||
|| fourier_filter_cell                        :   364       73.70s   1.635%  25.048 ||
|| hamiltonian_energy_components              :     6       90.89s   2.017%  ------ ||
|| fourier_filter                             :  2473       95.74s   2.125%  ------ ||
|| hartree_on_grid_single                     :   285      105.32s   2.337%  ------ ||
|| projectors_init_fftbox_recip               :   401      106.09s   2.354%  ------ ||
|| fourier_interpolate_cell                   :   572      115.94s   2.573%  25.021 ||
|| properties_calculate                       :     1      117.98s   2.618%  ------ ||
|| fourier_interpolate                        :  2473      151.04s   3.352%  ------ ||
|| projectors_func_ovlp_box_spam3             :   226      152.45s   3.383%  ------ ||
|| projectors_grad_precond_batch              :    56      390.49s   8.665%  ------ ||
|| fourier_interpolate_product                :  6387      394.21s   8.748%  ------ ||
|| potential_apply_to_ngwf_batch              :   308      402.19s   8.925%  ------ ||
|| fourier_apply_cell_forward                 :  2566      421.11s   9.345%  27.817 ||
|| density_fftbox_interpolate_multiply        :  7436      425.23s   9.436%  ------ ||
|| fourier_apply_box                          : 48150      438.98s   9.741% 191.502 ||
|| fourier_apply_cell_backward                :  2566      449.92s   9.984%  26.036 ||
|| integrals_locpot_dbl_grid                  :   308      450.83s  10.004%  ------ ||
|| projectors_gradient_batch                  :   112      704.47s  15.633%  ------ ||
|| density_batch_interp_deposit               :   572      719.51s  15.967%  ------ ||
|| density_on_dbl_grid                        :   572      748.23s  16.604%  ------ ||
|| xc_energy_potential                        :   285      951.76s  21.120%  ------ ||
|| ngwf_gradient_build_batch                  :    56     1271.57s  28.217%  ------ ||
|| ngwf_gradient_batch                        :    56     1354.30s  30.053%  ------ ||
|| ngwf_gradient_lnv                          :    28     1374.74s  30.507%  ------ ||
|| hamiltonian_lhxc_calculate                 :   277     2125.66s  47.170%  ------ ||
|| lnv_denskernel_optimise_cg                 :    28     2412.19s  53.529%  ------ ||
|| ngwf_cg_optimise                           :     1     4318.14s  95.823%  ------ ||
|| energy_and_forces                          :     1     4498.15s  99.818%  ------ ||
|| total_time                                 :     1     4506.36s 100.000%  ------ ||
======================================================================================
Overhead of generating timer report: 
- 0 ms averaging over threads,
- 1 ms ensuring consistency across MPI ranks,
- 8 ms printing in order.

Job completed: 28-06-2025 13:26 (+0100)

onetep_launcher: ONETEP seems to have finished correctly (zero exit code).
                 Brought to you by PID 160381 on nid005548.
