==================================================================================
It's Sat 28 Jun 2025 12:11:31 PM BST.
*** Starting onetep_launcher (node nid002985, PIDs 253754 253755 253756 253757 253758 253759)...
    - ONETEP arguments: Fe_H2O_6_LowSpin.dat
    - Current directory: /mnt/lustre/a2fs-work3/work/e89/e89/phsmea/onetep_ali/Fe_H2O_6/LS/nsp
    - Launcher executable directory: /mnt/lustre/a2fs-work3/work/e89/e89/phsmea/onetep_ali
    - (-e) ONETEP executable specified through command-line: /work/e89/e89/phsmea/onetep.archer2_2024_cray_2
      ... trying /work/e89/e89/phsmea/onetep.archer2_2024_cray_2
          -> looks OK
*** Setting up environment...
    - (-s) Process stack size: unlimited
    - (-t) OMP_NUM_THREADS: 8
    - (-o) OMP_STACKSIZE: 64M
    - (-c) Maximum core file size: 2048000
    - (-d) decfort_dump_flag: n
    - (-m) I_MPI_OFA_TRANSLATION_CACHE: 0
    - (-m) I_MPI_DAPL_TRANSLATION_CACHE: 0
    - (-m) I_MPI_DAPL_UD_TRANSLATION_CACHE: 0
*** Starting ONETEP...
    - /work/e89/e89/phsmea/onetep.archer2_2024_cray_2 Fe_H2O_6_LowSpin.dat
=================================================================================
_________________________________________________________________________________
 +---------------------------------------------------------------+
 |                                                               |
 |        ####### #     # ####### ####### ####### ######         |
 |        #     # ##    # #          #    #       #     #        |
 |        #     # # #   # #          #    #       #     #        |
 |        #     # #  #  # #####      #    #####   ######         |
 |        #     # #   # # #          #    #       #              |
 |        #     # #    ## #          #    #       #              |
 |        ####### #     # #######    #    ####### #              |
 |                                                               |
 |        Linear-Scaling Ab Initio Total Energy Program          |
 |                                                               |
 |          Release for academic collaborators of ODG            |
 |                                             Version 7.3.0     |
 | Remote: git@github.com:Miesaz/onetep_mea.git                  |
 | Local branch: master                                          |
 | Commit ID: 4af45e89288c8df5499704252eec3e032ee3d0c8           |
 | Date: Tue Aug 6 11:28:44 2024 +0100                           |
 | Locally modified files:                                       |
 |   src/hubbard_build_mod.F90                                   |
 |   src/services_mod.F90                                        |
 |                                                               |
 +---------------------------------------------------------------+
 |                                                               |
 |  Authors:                                                     |
 |  Jacek Dziedzic, Peter D. Haynes, Nicholas D. M. Hine,        |
 |  Arash A. Mostofi, Mike C. Payne and Chris-Kriton Skylaris    |
 |                                                               |
 |  Contributors:                                                |
 |  J. Aarons, L. Andrinopoulos, P. W. Avraam, R. A. Bell,       |
 |  A. Bhandari, G. A. Bramley, R. J. Charlton, S. J. Clark,     |
 |  R. J. Clements, G. C. Constantinescu, F. Corsetti,           |
 |  N. Corsini, O. Dieguez, S. M. M. Dubois, K. K. B. Duff,      |
 |  J. M. Escartin, M. Escobar Azor, A. Greco,                   |
 |  H. Helal, Q. O. Hill, L. P. Lee, J.-H. Li,                   |
 |  T. Li, E. B. Linscott, G. Moynihan, D. D. O`Regan,           |
 |  O. K. Okan, E. Parkinson, M. J. S. Phipps,                   |
 |  C. J. Pickard, J. C. A. Prentice, M. I. J. Probert,          |
 |  L. E. Ratcliff, M. Robinson, A. Ruiz Serrano,                |
 |  M. dos Santos Dias, J. S. Spencer, E. W. Tait,               |
 |  G. Teobaldi, D. Turban, V. Vitale, K. A. Wilkinson,          |
 |  C. Weber, J. C. Womack, Chengcheng Xiao, N. Yeung,           |
 |  and T. J. Zuehlsdorff.                                       |
 |                                                               |
 |                                   Copyright (c) 2004-2025     |
 |                                                               |
 |  Please cite:                                                 |
 |  "The ONETEP linear-scaling density functional theory program"|
 |   J. Chem. Phys. 152(17) 174111 (2020)                        |
 |                                                               |
 |          in all publications arising from your use of ONETEP. |
 |                                                               |
 +---------------------------------------------------------------+
 |                                                               |
 |   ONETEP is based on developments described in the following  |
 |   publications:                                               |
 |                                                               |
 |  "Nonorthogonal generalized Wannier function pseudopotential  |
 |   plane-wave method".                                         |
 |   C.-K. Skylaris, A. A. Mostofi, P. D. Haynes, O. Dieguez,    |
 |   M. C. Payne.                                                |
 |   Phys. Rev. B 66 035119 (2002).                              |
 |                                                               |
 |  "Preconditioned iterative minimization for linear-scaling    |
 |   electronic structure calculations".                         |
 |   A. A. Mostofi, P. D. Haynes, C.-K. Skylaris, M. C. Payne.   |
 |   J. Chem. Phys. 119(17), pp.8842-8848 (2003).                |
 |                                                               |
 |  "Total-energy calculations on a real space grid with         |
 |   localized functions and a plane-wave basis".                |
 |   A. A. Mostofi, C.-K. Skylaris, P. D. Haynes, M. C. Payne.   |
 |   Comput. Phys. Commun. 147, pp.788-802 (2002).               |
 |                                                               |
 |  "Accurate kinetic energy evaluation in electronic structure  |
 |   calculations with localized functions on real space grids"  |
 |   C.-K. Skylaris, A. A. Mostofi, P. D. Haynes, C. J. Pickard, |
 |   M. C. Payne.                                                |
 |   Comput. Phys. Commun. 140, pp.315-322 (2001).               |
 |                                                               |
 |  "Accurate ionic forces and geometry optimization in linear-  |
 |   scaling density-functional theory with local orbitals"      |
 |   N. D. M. Hine, M. Robinson, P. D. Haynes, C.-K. Skylaris,   |
 |   M. C. Payne, and A. A. Mostofi.                             |
 |   Phys. Rev. B 83 195102 (2011).                              |
 |                                                               |
 +---------------------------------------------------------------+

Job started: 28-06-2025 12:11 (+0100)
 
Reading parameters from file "Fe_H2O_6_LowSpin.dat" ...... done

If your calculation crashes here, before "Checking processes and threads..."
is displayed, then your stack size is insufficient.
If so, use "ulimit -s unlimited" at runtime.
You can disable this check with "check_stack_size F".

Checking processes and threads...
   Determining the default number of threads...
      No default threads set at compilation time: defaulting to 1.
      OpenMP library call suggests 8 threads.
      Hybrid MPI-OpenMP compilation detected.
      Number of MPI processes > 1.
      OMP_NUM_THREADS environment variable present and
      its value matches the one obtained from the OpenMP library call.
      Using this value as default.
      Default threads: 8
      Default applies to threads_max and threads_num_fftboxes.
      Settings in the input file override this default.
   ... done

   Running with 6 MPI processes.
   There are 6 MPI processes running on the same node as the root process.
   Each MPI process is using: 
               1 threads for simulation cell FFTs.
               1 threads for threaded FFT box operations.
               8 threads for loops over batched FFT box operations.
               8 threads in other parallel regions.
   MPI Interface: S1 (use mpi_f08) (-DMPI -DUSE_MPI_F08).
   MPI_ASYNC_PROTECTS_NONBLOCKING: Yes. MPI_SUBARRAYS_SUPPORTED: Yes.
   FFTW Interface: OMP-capable and MODERN. (-DUSE_MODERN_FFTW specified).
   GPU Interface: None.
   GPU FFT Backend: None.
... done

Basic input checks...... done

Reading geometry and species blocks from file "Fe_H2O_6_LowSpin.dat" ...
  <species_atomic_set> block not found: NGWF initialisation set to SOLVE
    
  Number of PPD points along a3 set to 1.  This is 
  the default value, it may have been provided also in the input file.
... done


--------------------------------------------------------------------------------
---------------------------------- INPUT FILE ----------------------------------
--------------------------------------------------------------------------------

charge : 3                                                                      
cutoff_energy : 800 eV                                                          
do_properties : T                                                               
edft : F                                                                        
fine_grid_scale : 4                                                             
forces_output_detail : VERBOSE                                                  
output_detail : VERBOSE                                                         
paw : T                                                                         
pseudo_path : ../../..                                                          
spin : 1                                                                        
task : SINGLEPOINT                                                              
write_denskern : T                                                              
write_forces : T                                                                
write_tightbox_ngwfs : T                                                        
xc_functional : pbe                                                             
%BLOCK HUBBARD                                                                  
Fe 2 4.0 0 -10 0 0                                                              
%ENDBLOCK HUBBARD                                                               
%BLOCK LATTICE_CART                                                             
ang                                                                             
24.26273295       0.00000000       0.00000000                                   
0.00000000      24.37834389       0.00000000                                    
0.00000000       0.00000000      24.49207180                                    
%ENDBLOCK LATTICE_CART                                                          
%BLOCK POSITIONS_ABS                                                            
ang                                                                             
Fe    12.131409    12.189430    12.246010                                       
O    10.852025    11.974546    10.809567                                        
O    13.409684    12.402138    13.683725                                        
O    12.703018    13.906702    11.545482                                        
O    11.558212    10.474108    12.948319                                        
O    10.764765    13.123292    13.250511                                        
O    13.495125    11.254929    11.237207                                        
H    10.736446    14.086048    13.386765                                        
H    12.308696    14.358703    10.779612                                        
H    10.000000    12.439837    10.746818                                        
H    10.752702    10.000000    12.679156                                        
H    13.274587    12.926097    14.492072                                        
H    14.170631    11.672698    10.675578                                        
H    11.953005    10.019251    13.712311                                        
H    10.093469    12.702583    13.815024                                        
H    10.990876    11.453445    10.000000                                        
H    13.527032    10.291203    11.108929                                        
H    13.511670    14.378344    11.809422                                        
H    14.262733    11.938399    13.743870                                        
%ENDBLOCK POSITIONS_ABS                                                         
%BLOCK SPECIES                                                                  
Fe Fe 26 -1 10.0                                                                
H H 1 -1 10.0                                                                   
O O 8 -1 10.0                                                                   
%ENDBLOCK SPECIES                                                               
%BLOCK SPECIES_POT                                                              
Fe Fe.PBE-paw.abinit                                                            
H H.PBE-paw.abinit                                                              
O O.PBE-paw.abinit                                                              
%ENDBLOCK SPECIES_POT                                                           

--------------------------------------------------------------------------------
-------------------------------- END INPUT FILE --------------------------------
--------------------------------------------------------------------------------


 
 ESDF WARNING(1): "charge" (esdf_physical) has no units. Assume "e".
<<<<<<<<<<<<<<<<<<<<<<<<<<<<<<<<< Full system >>>>>>>>>>>>>>>>>>>>>>>>>>>>>>>>>>
<<<<<<<<<<<<<<<<<<<<<<<<<<< PAW Dataset information >>>>>>>>>>>>>>>>>>>>>>>>>>>
File: Fe.PBE-paw.abinit; rc = 2.12 bohr; shape type =  2; rshape = 1.81 bohr;
  Atomic number: 26;  ionic charge: 16.000000
    Partial Wave 1: l = 0
    Partial Wave 2: l = 0
    Partial Wave 3: l = 1
    Partial Wave 4: l = 1
    Partial Wave 5: l = 2
    Partial Wave 6: l = 2
  Core charge supplied for Nonlinear Core Corrections
File: O.PBE-paw.abinit; rc = 1.41 bohr; shape type =  2; rshape = 1.20 bohr;
  Atomic number:  8;  ionic charge:  6.000000
    Partial Wave 1: l = 0
    Partial Wave 2: l = 0
    Partial Wave 3: l = 1
    Partial Wave 4: l = 1
  Core charge supplied for Nonlinear Core Corrections
File: H.PBE-paw.abinit; rc = 0.90 bohr; shape type =  2; rshape = 0.80 bohr;
  Atomic number:  1;  ionic charge:  1.000000
    Partial Wave 1: l = 0
    Partial Wave 2: l = 0
    Partial Wave 3: l = 1
<<<<<<<<<<<<<<<<<<<<<<<<<<<<<<<<<<<<<<< >>>>>>>>>>>>>>>>>>>>>>>>>>>>>>>>>>>>>>>

-------------------------- Atom counting information ---------------------------
Symbol    Natoms    Nngwfs    Nprojs
  Fe         1        13        18
  O          6        24        48
  H         12        12        60
.......   ......    ......    ......
Totals:     19        49       126
--------------------------------------------------------------------------------

=============================== PSINC grid sizes ===============================
                      Simulation cell:   91 x  91 x  91
                              FFT-box:   91 x  91 x  91
                                  PPD:    7 x   7 x   1
Grid space d1=  0.503845280792a0 (KE cutoff=  29.92331Eh = 814.25466eV)
Grid space d2=  0.506246083152a0 (KE cutoff=  29.64017Eh = 806.54999eV)
Grid space d3=  0.508607782094a0 (KE cutoff=  29.36554Eh = 799.07702eV)
================================================================================

********************* Fourier parallelisation information **********************
       Coarse grid (whole simulation cell) dimensions:     91    91    91
          Real-space ('12') slabs/proc (min max mean):     15    16    15
         Recip-space ('23') slabs/proc (min max mean):      7     8     7
********************************************************************************

********************* Fourier parallelisation information **********************
       Double grid (whole simulation cell) dimensions:    182   182   182
          Real-space ('12') slabs/proc (min max mean):     30    31    30
         Recip-space ('23') slabs/proc (min max mean):     15    16    15
********************************************************************************

********************* Fourier parallelisation information **********************
         Fine grid (whole simulation cell) dimensions:    364   364   364
          Real-space ('12') slabs/proc (min max mean):     60    61    60
         Recip-space ('23') slabs/proc (min max mean):     30    31    30
********************************************************************************

Atom SCF Calculation for Fe : Z (AE atom) =  26 : Z (PS atom) =  16
Config String: 3s2.0 3p6.0 3d6.0 4s2.0 4p0.0
Orbitals (num,occ):  5     2.00 6.00 6.00 2.00 0.00
Orbitals   (num,l):  5        0    1    2    0    1
Real-space Grid (nr,dr,rmax): 1503    0.0066577896   10.0000000000
Spherical Bessel Basis (nsws,lmax,cutoff):   37    4  176.3967570603
Confining potential (l,width,scale):  0    3.0000000000  100.0000000000
Confining potential (l,width,scale):  1    3.0000000000  100.0000000000
Confining potential (l,width,scale):  2    3.0000000000  100.0000000000
  1       -111.4005172118  -52.5575611559   72.2164000725   -4.0901868950
  2       -116.6635475262  -20.5601904919   91.7007084249   -2.2962490369
  3       -121.6156136875  -23.2753453277   92.4544705195   -2.7706732816
  4       -123.0066153699  -21.4164712440   94.7136519632   -2.9394413820
  5       -123.8168122141  -22.6370400734   94.1384349420   -3.0798102909
  6       -123.9055073486  -21.7222843370   94.9342614757   -3.0846520419
  7       -124.0956886241  -22.4138747628   94.4617720360   -3.1224050559
  8       -124.0492758687  -21.8887017510   94.8692044073   -3.1096545890
  9       -124.1222324005  -22.2877514631   94.5777385101   -3.1254730624
 10       -124.0894611846  -22.0431086758   94.7620026738   -3.1177312036
 11       -124.1066906466  -22.1417456915   94.6895757605   -3.1215019185
 12       -124.1027421480  -22.1090398813   94.7144439268   -3.1205307857
 13       -124.1039552528  -22.1131641559   94.7116547863   -3.1207645739
 14       -124.1041718268  -22.1127261003   94.7121170471   -3.1207931979
 15       -124.1043563153  -22.1126782042   94.7122440208   -3.1208211382
 16       -124.1044853288  -22.1126702816   94.7123114748   -3.1208409484
 17       -124.1045734258  -22.1126674103   94.7123551926   -3.1208545095
 18       -124.1046334193  -22.1126657134   94.7123845864   -3.1208637603
 19       -124.1046742816  -22.1126645462   94.7124045128   -3.1208700757
 20       -124.1047021281  -22.1126636961   94.7124180731   -3.1208743926
 21       -124.1047211147  -22.1126630559   94.7124273290   -3.1208773473
 22       -124.1047340666  -22.1126625637   94.7124336643   -3.1208793718
 23       -124.1047429056  -22.1126621807   94.7124380116   -3.1208807606
 24       -124.1047489402  -22.1126618812   94.7124410017   -3.1208817142
 25       -124.1047530616  -22.1126616468   94.7124430628   -3.1208823696
 26       -124.1047558771  -22.1126614637   94.7124444863   -3.1208828204
 27       -124.1047578011  -22.1126613212   94.7124454714   -3.1208831306
 28       -124.1047591161  -22.1126612109   94.7124461541   -3.1208833444
 29       -124.1047600152  -22.1126611259   94.7124466281   -3.1208834917
 30       -124.1047606300  -22.1126610607   94.7124469575   -3.1208835933
 31       -124.1047610504  -22.1126610110   94.7124471869   -3.1208836634
 32       -124.1047613380  -22.1126609733   94.7124473467   -3.1208837118
 33       -124.1047615347  -22.1126609447   94.7124474583   -3.1208837453
 34       -124.1047616693  -22.1126609232   94.7124475361   -3.1208837684
 35       -124.1047617614  -22.1126609071   94.7124475906   -3.1208837843
Atom SCF converged after  35 iterations to a total energy of   -124.10476176

Atom SCF Calculation for H  : Z (AE atom) =   1 : Z (PS atom) =   1
Config String: 1s1.0
Orbitals (num,occ):  1     1.00
Orbitals   (num,l):  1        0
Real-space Grid (nr,dr,rmax): 1503    0.0066577896   10.0000000000
Spherical Bessel Basis (nsws,lmax,cutoff):   37    2  176.3967570603
Confining potential (l,width,scale):  0    3.0000000000  100.0000000000
  1         -0.3348525927   -0.2401819449    0.2820953128   -0.2388448411
  2         -0.4038948821   -0.2405504229    0.2866889240   -0.2416217444
  3         -0.4360732773   -0.2390089543    0.2890729861   -0.2443653791
  4         -0.4497314704   -0.2383264046    0.2899315599   -0.2456060208
  5         -0.4551901081   -0.2381357631    0.2901452306   -0.2460489407
  6         -0.4573594294   -0.2381000300    0.2901742710   -0.2461947705
  7         -0.4582326910   -0.2381004501    0.2901659451   -0.2462415077
  8         -0.4585900702   -0.2381055523    0.2901559649   -0.2462564278
  9         -0.4587384807   -0.2381092319    0.2901497571   -0.2462612174
 10         -0.4588008132   -0.2381112609    0.2901465144   -0.2462627659
 11         -0.4588272086   -0.2381122698    0.2901449456   -0.2462632682
 12         -0.4588384507   -0.2381127465    0.2901442163   -0.2462634302
 13         -0.4588432580   -0.2381129655    0.2901438848   -0.2462634814
 14         -0.4588453195   -0.2381130645    0.2901437362   -0.2462634968
 15         -0.4588462053   -0.2381131088    0.2901436700   -0.2462635011
 16         -0.4588465865   -0.2381131284    0.2901436407   -0.2462635020
 17         -0.4588467508   -0.2381131372    0.2901436278   -0.2462635020
 18         -0.4588468216   -0.2381131410    0.2901436222   -0.2462635019
Atom SCF converged after  18 iterations to a total energy of     -0.45884682

Atom SCF Calculation for O  : Z (AE atom) =   8 : Z (PS atom) =   6
Config String: 2s2.0 2p4.0
Orbitals (num,occ):  2     2.00 4.00
Orbitals   (num,l):  2        0    1
Real-space Grid (nr,dr,rmax): 1503    0.0066577896   10.0000000000
Spherical Bessel Basis (nsws,lmax,cutoff):   37    2  176.3967570603
Confining potential (l,width,scale):  0    3.0000000000  100.0000000000
Confining potential (l,width,scale):  1    3.0000000000  100.0000000000
  1         -8.3209332552   -7.4828484739   10.1554312602   -2.1270270195
  2        -15.1405599232   -3.0474882742   13.6590820486   -2.5134754209
  3        -15.5174094640   -3.1101891961   13.6243211040   -2.6472956001
  4        -15.7606118231   -3.0805775314   13.6668776248   -2.7100307789
  5        -15.8308896490   -3.0881936416   13.6633910567   -2.7338682066
  6        -15.8678540393   -3.0862312957   13.6673103078   -2.7443897972
  7        -15.8801393942   -3.0873360689   13.6669183555   -2.7485230919
  8        -15.8859601688   -3.0872977830   13.6672813272   -2.7502957173
  9        -15.8880580832   -3.0874730763   13.6672320183   -2.7510066526
 10        -15.8889924584   -3.0874981416   13.6672623218   -2.7513066537
 11        -15.8893459980   -3.0875277929   13.6672548500   -2.7514284384
 12        -15.8894977936   -3.0875355600   13.6672566096   -2.7514793465
 13        -15.8895569380   -3.0875407304   13.6672553199   -2.7515001537
 14        -15.8895817884   -3.0875424467   13.6672552475   -2.7515088021
 15        -15.8895916441   -3.0875433561   13.6672550136   -2.7515123499
 16        -15.8895957327   -3.0875436929   13.6672549605   -2.7515138192
 17        -15.8895973717   -3.0875438525   13.6672549179   -2.7515144231
 18        -15.8895980466   -3.0875439149   13.6672549044   -2.7515146726
 19        -15.8895983189   -3.0875439428   13.6672548968   -2.7515147752
 20        -15.8895984306   -3.0875439540   13.6672548940   -2.7515148175
 21        -15.8895984758   -3.0875439588   13.6672548927   -2.7515148349
Atom SCF converged after  21 iterations to a total energy of    -15.88959848

Atom SCF Calculation for Fe : Z (AE atom) =  26 : Z (PS atom) =  16
Config String: 3s2.0 3p6.0 3d6.0 4s2.0 4p0.0
Orbitals (num,occ):  5     2.00 6.00 6.00 2.00 0.00
Orbitals   (num,l):  5        0    1    2    0    1
Real-space Grid (nr,dr,rmax): 1503    0.0066577896   10.0000000000
Spherical Bessel Basis (nsws,lmax,cutoff):   37    4  176.3967570603
Confining potential (l,width,scale):  0    3.0000000000  100.0000000000
Confining potential (l,width,scale):  1    3.0000000000  100.0000000000
Confining potential (l,width,scale):  2    3.0000000000  100.0000000000
  1       -111.4005172118  -52.5575611559   72.2164000725   -4.0901868950
  2       -116.6635475262  -20.5601904919   91.7007084249   -2.2962490369
  3       -121.6156136875  -23.2753453277   92.4544705195   -2.7706732816
  4       -123.0066153699  -21.4164712440   94.7136519632   -2.9394413820
  5       -123.8168122141  -22.6370400734   94.1384349420   -3.0798102909
  6       -123.9055073486  -21.7222843370   94.9342614757   -3.0846520419
  7       -124.0956886241  -22.4138747628   94.4617720360   -3.1224050559
  8       -124.0492758687  -21.8887017510   94.8692044073   -3.1096545890
  9       -124.1222324005  -22.2877514631   94.5777385101   -3.1254730624
 10       -124.0894611846  -22.0431086758   94.7620026738   -3.1177312036
 11       -124.1066906466  -22.1417456915   94.6895757605   -3.1215019185
 12       -124.1027421480  -22.1090398813   94.7144439268   -3.1205307857
 13       -124.1039552528  -22.1131641559   94.7116547863   -3.1207645739
 14       -124.1041718268  -22.1127261003   94.7121170471   -3.1207931979
 15       -124.1043563153  -22.1126782042   94.7122440208   -3.1208211382
 16       -124.1044853288  -22.1126702816   94.7123114748   -3.1208409484
 17       -124.1045734258  -22.1126674103   94.7123551926   -3.1208545095
 18       -124.1046334193  -22.1126657134   94.7123845864   -3.1208637603
 19       -124.1046742816  -22.1126645462   94.7124045128   -3.1208700757
 20       -124.1047021281  -22.1126636961   94.7124180731   -3.1208743926
 21       -124.1047211147  -22.1126630559   94.7124273290   -3.1208773473
 22       -124.1047340666  -22.1126625637   94.7124336643   -3.1208793718
 23       -124.1047429056  -22.1126621807   94.7124380116   -3.1208807606
 24       -124.1047489402  -22.1126618812   94.7124410017   -3.1208817142
 25       -124.1047530616  -22.1126616468   94.7124430628   -3.1208823696
 26       -124.1047558771  -22.1126614637   94.7124444863   -3.1208828204
 27       -124.1047578011  -22.1126613212   94.7124454714   -3.1208831306
 28       -124.1047591161  -22.1126612109   94.7124461541   -3.1208833444
 29       -124.1047600152  -22.1126611259   94.7124466281   -3.1208834917
 30       -124.1047606300  -22.1126610607   94.7124469575   -3.1208835933
 31       -124.1047610504  -22.1126610110   94.7124471869   -3.1208836634
 32       -124.1047613380  -22.1126609733   94.7124473467   -3.1208837118
 33       -124.1047615347  -22.1126609447   94.7124474583   -3.1208837453
 34       -124.1047616693  -22.1126609232   94.7124475361   -3.1208837684
 35       -124.1047617614  -22.1126609071   94.7124475906   -3.1208837843
Atom SCF converged after  35 iterations to a total energy of   -124.10476176

Atom SCF Calculation for H  : Z (AE atom) =   1 : Z (PS atom) =   1
Config String: 1s1.0
Orbitals (num,occ):  1     1.00
Orbitals   (num,l):  1        0
Real-space Grid (nr,dr,rmax): 1503    0.0066577896   10.0000000000
Spherical Bessel Basis (nsws,lmax,cutoff):   37    2  176.3967570603
Confining potential (l,width,scale):  0    3.0000000000  100.0000000000
  1         -0.3348525927   -0.2401819449    0.2820953128   -0.2388448411
  2         -0.4038948821   -0.2405504229    0.2866889240   -0.2416217444
  3         -0.4360732773   -0.2390089543    0.2890729861   -0.2443653791
  4         -0.4497314704   -0.2383264046    0.2899315599   -0.2456060208
  5         -0.4551901081   -0.2381357631    0.2901452306   -0.2460489407
  6         -0.4573594294   -0.2381000300    0.2901742710   -0.2461947705
  7         -0.4582326910   -0.2381004501    0.2901659451   -0.2462415077
  8         -0.4585900702   -0.2381055523    0.2901559649   -0.2462564278
  9         -0.4587384807   -0.2381092319    0.2901497571   -0.2462612174
 10         -0.4588008132   -0.2381112609    0.2901465144   -0.2462627659
 11         -0.4588272086   -0.2381122698    0.2901449456   -0.2462632682
 12         -0.4588384507   -0.2381127465    0.2901442163   -0.2462634302
 13         -0.4588432580   -0.2381129655    0.2901438848   -0.2462634814
 14         -0.4588453195   -0.2381130645    0.2901437362   -0.2462634968
 15         -0.4588462053   -0.2381131088    0.2901436700   -0.2462635011
 16         -0.4588465865   -0.2381131284    0.2901436407   -0.2462635020
 17         -0.4588467508   -0.2381131372    0.2901436278   -0.2462635020
 18         -0.4588468216   -0.2381131410    0.2901436222   -0.2462635019
Atom SCF converged after  18 iterations to a total energy of     -0.45884682

Atom SCF Calculation for O  : Z (AE atom) =   8 : Z (PS atom) =   6
Config String: 2s2.0 2p4.0
Orbitals (num,occ):  2     2.00 4.00
Orbitals   (num,l):  2        0    1
Real-space Grid (nr,dr,rmax): 1503    0.0066577896   10.0000000000
Spherical Bessel Basis (nsws,lmax,cutoff):   37    2  176.3967570603
Confining potential (l,width,scale):  0    3.0000000000  100.0000000000
Confining potential (l,width,scale):  1    3.0000000000  100.0000000000
  1         -8.3209332552   -7.4828484739   10.1554312602   -2.1270270195
  2        -15.1405599232   -3.0474882742   13.6590820486   -2.5134754209
  3        -15.5174094640   -3.1101891961   13.6243211040   -2.6472956001
  4        -15.7606118231   -3.0805775314   13.6668776248   -2.7100307789
  5        -15.8308896490   -3.0881936416   13.6633910567   -2.7338682066
  6        -15.8678540393   -3.0862312957   13.6673103078   -2.7443897972
  7        -15.8801393942   -3.0873360689   13.6669183555   -2.7485230919
  8        -15.8859601688   -3.0872977830   13.6672813272   -2.7502957173
  9        -15.8880580832   -3.0874730763   13.6672320183   -2.7510066526
 10        -15.8889924584   -3.0874981416   13.6672623218   -2.7513066537
 11        -15.8893459980   -3.0875277929   13.6672548500   -2.7514284384
 12        -15.8894977936   -3.0875355600   13.6672566096   -2.7514793465
 13        -15.8895569380   -3.0875407304   13.6672553199   -2.7515001537
 14        -15.8895817884   -3.0875424467   13.6672552475   -2.7515088021
 15        -15.8895916441   -3.0875433561   13.6672550136   -2.7515123499
 16        -15.8895957327   -3.0875436929   13.6672549605   -2.7515138192
 17        -15.8895973717   -3.0875438525   13.6672549179   -2.7515144231
 18        -15.8895980466   -3.0875439149   13.6672549044   -2.7515146726
 19        -15.8895983189   -3.0875439428   13.6672548968   -2.7515147752
 20        -15.8895984306   -3.0875439540   13.6672548940   -2.7515148175
 21        -15.8895984758   -3.0875439588   13.6672548927   -2.7515148349
Atom SCF converged after  21 iterations to a total energy of    -15.88959848

BC: Task: SINGLEPOINT
BC: +++++++++++++++ Summary of boundary conditions ++++++++++++++
BC: |       Component       |     Keyword     |   Periodicity   |
BC: |                       |                 |     X  Y  Z [1] |
BC: |-----------------------------------------------------------|
BC: | Ion-ion               | ion_ion_bc [2]  |     P  P  P     |
BC: | Local pseudopotential | pspot_bc [3]    |     P  P  P     |
BC: +++++++++++++++++++++++++++++++++++++++++++++++++++++++++++++
BC: P: Periodic, O: Open.
BC: [1] Not strictly along X, Y, Z but rather along lattice vectors A1, A2, A3.
BC: [2] Also affected by: pbc_correction_cutoff, cutoff_coulomb_type,
BC:     is_smeared_ion_rep, is_implicit_solvent, openbc_ion_ion.
BC: [3] Also affected by: is_smeared_ion_rep, is_implicit_solvent, openbc_pspot.

Determining parallel strategy ...
... using space-filling curve
... NGWF load balancing: max     13;  min      6;  average      8
... Projector load balancing: max     23;  min     18;  average     21
... Hubbard Projector load balancing: max      5;  min      0;  average      1
... done
Calculating Ewald energy ...
              Ewald: real-space energy =          276.146724
        Ewald: reciprocal-space energy =           32.367774
         Ewald: (sum_charge)**2 energy =           16.660578
         Ewald: (sum_charge**2) energy =           17.162568
                          Ewald energy =          274.691352
Basis initialisation ...
... NGWF spheres initialised
... Projector spheres initialised
... Hubbard Projector spheres initialised
... NGWF tight boxes initialised
... Projector tight boxes initialised
... Tight-boxes gathered
... NGWF basis size (local,global):        109551       419067
... PAW projector initialisation
... done

============================= Charge Augmentation ==============================
                           Aug box size:   35 x  35 x  35
================================================================================
... Hubbard projector initialisation

========================== Sparse matrix information ===========================
                        Overlap matrix filling: 100.00%
                        Density kernel filling: 100.00% (known to be dense)
              NGWF-Proj overlap matrix filling: 100.00%
                    Aug Overlap matrix filling: 100.00%
      NGWF-Hubbard Proj overlap matrix filling: 100.00%
                             VW matrix filling: 100.00%
                    Hamiltonian matrix filling: 100.00%
                  NGWF diagonal matrix filling:  11.54%
                             KS matrix filling: 100.00% 
                           KSKS matrix filling: 100.00% 
================================================================================

Sparse matrix initialisation ...
 done
NGWF initialisation ... done
============ Calculation of NGWF S^-1 using Hotelling algorithm ================ 
     Iteration  |  Spin  |  Frobenius norm and Maximum abs value (of I-S*S_n^-1)
         1           1      0.68132136E+01     0.98124401E+00
         2           1      0.66497200E+01     0.96285851E+00
         3           1      0.63748858E+01     0.92716444E+00
         4           1      0.59569173E+01     0.85986097E+00
         5           1      0.53761926E+01     0.74023155E+00
         6           1      0.46478690E+01     0.66817405E+00
         7           1      0.39088938E+01     0.62343020E+00
         8           1      0.32971805E+01     0.57754967E+00
         9           1      0.26921963E+01     0.52050613E+00
        10           1      0.19617738E+01     0.43484804E+00
        11           1      0.12227459E+01     0.31141641E+00
        12           1      0.61454834E+00     0.17511602E+00
        13           1      0.18586882E+00     0.57000746E-01
        14           1      0.18119223E-01     0.60724371E-02
        15           1      0.18979171E-03     0.69335732E-04
        16           1      0.23967825E-07     0.91554013E-08
        17           1      0.39043755E-14     0.17763568E-14
================================================================================
 done

################################################################################
DFT+U information on atom      1 of Hubbard species Fe  
################################################################################
Using the on-atom contravariant metric, the NGWF hydrogenic character
| < \phi | \psi > |**2 matrix of Hubbard site      1 is 
  m_l =   -2          -1           0           1           2         SUM
  0.00000000 -0.00000000 -0.00000000 -0.00000000 -0.00000000 -0.00000000
 -0.00000000  0.00000000  0.00000000  0.00000000  0.00000000  0.00000000
  0.00000000 -0.00000000 -0.00000000  0.00000000 -0.00000000 -0.00000000
 -0.00000000  0.00000000 -0.00000000  0.00000000 -0.00000000 -0.00000000
  0.25533617 -0.00000000  0.00000000  0.00000000 -0.00000000  0.25533617
 -0.00000000  0.25536411  0.00000000 -0.00000000 -0.00000000  0.25536411
  0.00000000  0.00000000  0.25707237  0.00000000  0.00000000  0.25707237
  0.00000000 -0.00000000  0.00000000  0.25540207 -0.00000000  0.25540207
 -0.00000000 -0.00000000  0.00000000 -0.00000000  0.25696635  0.25696635
 -0.00000000  0.00000000  0.00000000  0.00000000  0.00000000  0.00000000
  0.00000000 -0.00000000  0.00000000 -0.00000000 -0.00000000 -0.00000000
 -0.00000000  0.00000000 -0.00000000  0.00000000 -0.00000000  0.00000000
 -0.00000000 -0.00000000 -0.00000000 -0.00000000 -0.00000000 -0.00000000
Total hydrogenic projection of NGWFs on this atom             1.28014107
################################################################################


################################################################################
Using the subspace contravariant metric, the NGWF hydrogenic character
| < \phi | \psi > |**2 matrix of Hubbard site      1 is 
  m_l =   -2          -1           0           1           2         SUM
  0.25533617 -0.00000000  0.00000000  0.00000000 -0.00000000  0.25533617
 -0.00000000  0.25536411  0.00000000 -0.00000000 -0.00000000  0.25536411
  0.00000000  0.00000000  0.25707237  0.00000000  0.00000000  0.25707237
  0.00000000 -0.00000000  0.00000000  0.25540207 -0.00000000  0.25540207
 -0.00000000 -0.00000000  0.00000000 -0.00000000  0.25696635  0.25696635
Total hydrogenic projection of NGWFs on this correlated site  1.28014107
################################################################################

Calculating core density ...
================================= Core Density =================================
               Core den box size:   39 x  39 x  39
================================================================================
 ... done
Density renormalisation, spin  1 ...
Target Charge:    31.000000000000 ; Input Charge:    32.000462175932
Density renormalisation, spin  2 ...
Target Charge:    30.000000000000 ; Input Charge:    32.000462175932
Density kernel initialisation
 
======= Optimisation of K by Palser-Manolopoulos canonical purification ======== 
         Iteration  |  Band structure energy |    c_n   
               1         -40.02716770703966    0.6152443
               2         -40.76940245126427    0.6088208
               3         -41.62137555322632    0.6002312
               4         -42.58932704327249    0.5898315
               5         -43.71166432606307    0.5778058
               6         -45.02185991193787    0.5666035
               7         -46.45115394836019    0.5700774
               8         -47.73554469438055    0.6257809
               9         -48.49809892397735    0.7625906
              10         -48.72261381478253    0.8648709
              11         -48.76025107994401    0.8843857
              12         -48.77100066735724    0.8808621
              13         -48.78037277813989    0.8747738
              14         -48.79005381396198    0.8677211
              15         -48.79999353855695    0.8596184
              16         -48.81009780552476    0.8503938
              17         -48.82023592248355    0.8400179
              18         -48.83024092959547    0.8285197
              19         -48.83991671848027    0.8159932
              20         -48.84905437439947    0.8025797
              21         -48.85745797397001    0.7884119
              22         -48.86497581184288    0.7735118
              23         -48.87152801139992    0.7576598
              24         -48.87711926576330    0.7402765
              25         -48.88182969100777    0.7203843
              26         -48.88578673217617    0.6967048
              27         -48.88913009012057    0.6679320
              28         -48.89198179523997    0.6332604
              29         -48.89442139139545    0.5934824
              30         -48.89644907693906    0.5531349
              31         -48.89794013826329    0.5216136
              32         -48.89872964085272    0.5054828
              33         -48.89894392188533    0.5004648
              34         -48.89896191992567    0.5000021
              35         -48.89896208711420    0.4999998
              36         -48.89896208713095    0.4999998
Termination criterion satisfied: band energy change below threshold.
Final occupancy bounds: [    0.00000000000000:    1.00000000000000]
Closest occupancy to 0.5:     1.00000000000000
================================================================================
 
======= Optimisation of K by Palser-Manolopoulos canonical purification ======== 
         Iteration  |  Band structure energy |    c_n   
               1         -39.08171521228932    0.5945418
               2         -39.91464400194284    0.5876446
               3         -40.86890920894031    0.5786255
               4         -41.94397379041460    0.5686851
               5         -43.18120830298915    0.5593359
               6         -44.59448578770728    0.5573289
               7         -46.02608946323086    0.5885746
               8         -47.09908199478982    0.6923389
               9         -47.54535675952923    0.8065624
              10         -47.63465417360565    0.8340011
              11         -47.65907839723009    0.8273723
              12         -47.67972789352928    0.8149935
              13         -47.70145647656066    0.7994394
              14         -47.72407317825814    0.7801636
              15         -47.74704318402999    0.7567485
              16         -47.76949119449808    0.7292931
              17         -47.79020508236898    0.6988597
              18         -47.80783735634692    0.6676534
              19         -47.82140015374323    0.6381047
              20         -47.83085649148063    0.6106834
              21         -47.83718040837186    0.5831440
              22         -47.84160038717897    0.5558165
              23         -47.84481843571331    0.5435604
              24         -47.84699367207563    0.5762812
              25         -47.84816136127861    0.6394578
              26         -47.84856523985930    0.6477981
              27         -47.84875682124931    0.6187523
              28         -47.84893926866951    0.5810095
              29         -47.84911692092082    0.5402628
              30         -47.84927179258985    0.5102754
              31         -47.84937765266594    0.5006577
              32         -47.84941994519282    0.5000026
              33         -47.84942523965513    0.5000000
              34         -47.84942531079756    0.4999989
              35         -47.84942531081010    0.4999989
Termination criterion satisfied: band energy change below threshold.
Final occupancy bounds: [    0.00000000000000:    1.00000000000000]
Closest occupancy to 0.5:     1.00000000000000
================================================================================

Writing density kernel to file "Fe_H2O_6_LowSpin.dkn" ... done

>>> Optimising kernel for current NGWFs:
   Initial electron number for spin 1:      31.00000000
   Initial electron number for spin 2:      30.00000000
     Final electron number for spin 1:      31.00000000
     Final electron number for spin 2:      30.00000000

=================== Penalty functional idempotency correction ==================
 RMS occupancy error at iteration   1:  0.000000 (step -0.5000 Ne1=     31.0000)
                                                               Ne2=     30.0000
            Final RMS occupancy error   :  0.000000 (Ne1=     31.0000)
                                                     Ne2=     30.0000
            Final occupancy bounds spin 1: [ -0.000,  1.000]
            Final occupancy bounds spin 2: [  0.000,  1.000]
================================================================================

................................................................................
<<<<<<<<<<<<<< LNV (Original version) density kernel optimisation >>>>>>>>>>>>>>
~~~~~~~~~~~~~~~~~~~~~~~~~~~~~~~~~~~~~~~~~~~~~~~~~~~~~~~~~~~~~~~~~~~~~~~~~~~~~~~~
   iter  |      energy (Eh)       | rms gradient |  commutator  |   dE (Eh)

################################################################################
DFT+U information on atom      1 of Hubbard species Fe  
################################################################################
Occupancy matrix of Hubbard site      1 and spin      1 is 
  m_l =   -2          -1           0           1           2
  0.99383853  0.00505425  0.00267587  0.00353706 -0.00026612
  0.00505282  0.98832678 -0.00220626  0.00355663  0.00094447
  0.00267832 -0.00220756  0.99839878 -0.00138878  0.00021396
  0.00353868  0.00355864 -0.00138696  0.99183140 -0.00035510
 -0.00026399  0.00094277  0.00021301 -0.00035598  0.99967986
################################################################################
Occupancy matrix of Hubbard site      1 and spin      2 is 
  m_l =   -2          -1           0           1           2
  0.99376306  0.00482852  0.00336184  0.00311925 -0.00034720
  0.00482720  0.98765189 -0.00015540  0.00230748  0.00070207
  0.00336452 -0.00015503  0.99216148  0.00241030  0.00095117
  0.00312096  0.00230918  0.00240995  0.98951874 -0.00080387
 -0.00034508  0.00070024  0.00095003 -0.00080489  0.99959275
################################################################################
Total occupancy of Hubbard site      1 is         9.93476326 e
Local magnetic moment of Hubbard site      1 is   0.00938742 mu_B
DFT+U energy of Hubbard site      1 is            0.00473209 Ha
################################################################################

      ideal mu1:      -0.122587020659
      ideal mu2:      -0.111593189193
             Q0:        -220.568818017517
             G0:     -12.263309835260
   RMS gradient:       0.101070116961
    Initial Ne1:      31.00000000
    Initial Ne2:      30.00000000
      Final Ne1:      31.00000000
      Final Ne2:      30.00000000

=================== Penalty functional idempotency correction ==================
 RMS occupancy error at iteration   1:  0.003795 (step -0.4880 Ne1=     31.0000)
                                                               Ne2=     30.0000
 RMS occupancy error at iteration   2:  0.000037 (step -0.5000 Ne1=     31.0000)
                                                               Ne2=     30.0000
            Final RMS occupancy error   :  0.000000 (Ne1=     31.0000)
                                                     Ne2=     30.0000
            Final occupancy bounds spin 1: [  0.000,  1.000]
            Final occupancy bounds spin 2: [  0.000,  1.000]
================================================================================

    1        -2.205688180175E+02     1.0107E-01     5.7506E-02

################################################################################
DFT+U information on atom      1 of Hubbard species Fe  
################################################################################
Occupancy matrix of Hubbard site      1 and spin      1 is 
  m_l =   -2          -1           0           1           2
  0.97991200  0.01378072  0.00824181  0.01345407 -0.00293478
  0.01377625  0.96247457 -0.00720213  0.01113536  0.00569120
  0.00824932 -0.00720631  0.99567427 -0.00411876  0.00160175
  0.01345927  0.01114191 -0.00411318  0.97528131 -0.00051044
 -0.00292918  0.00568753  0.00159861 -0.00051284  0.99863905
################################################################################
Occupancy matrix of Hubbard site      1 and spin      2 is 
  m_l =   -2          -1           0           1           2
  0.97979253  0.01300345  0.01043537  0.01216550 -0.00315930
  0.01299934  0.95980052  0.00129139  0.00638247  0.00477722
  0.01044366  0.00129417  0.97017384  0.01002865  0.00428469
  0.01217097  0.00638797  0.01002567  0.96757355 -0.00199362
 -0.00315374  0.00477311  0.00428071 -0.00199645  0.99835982
################################################################################
Total occupancy of Hubbard site      1 is         9.78768145 e
Local magnetic moment of Hubbard site      1 is   0.03628096 mu_B
DFT+U energy of Hubbard site      1 is            0.01494284 Ha
################################################################################

      ideal mu1:      -0.274519006704
      ideal mu2:      -0.269004795403
             Q0:        -221.775966114841
             G0:     -24.080614174430
   RMS gradient:       0.101264195595
    Initial Ne1:      30.99999993
    Initial Ne2:      29.99999991
      Final Ne1:      31.00000000
      Final Ne2:      30.00000000

=================== Penalty functional idempotency correction ==================
 RMS occupancy error at iteration   1:  0.024786 (step -0.4227 Ne1=     31.0000)
                                                               Ne2=     30.0000
 RMS occupancy error at iteration   2:  0.001327 (step -0.4989 Ne1=     31.0000)
                                                               Ne2=     30.0000
 RMS occupancy error at iteration   3:  0.000007 (step -0.5000 Ne1=     31.0000)
                                                               Ne2=     30.0000
            Final RMS occupancy error   :  0.000000 (Ne1=     31.0000)
                                                     Ne2=     30.0000
            Final occupancy bounds spin 1: [  0.000,  1.000]
            Final occupancy bounds spin 2: [  0.000,  1.000]
================================================================================

    2        -2.217759661148E+02     1.0126E-01     5.7655E-02    -1.2071E+00

################################################################################
DFT+U information on atom      1 of Hubbard species Fe  
################################################################################
Occupancy matrix of Hubbard site      1 and spin      1 is 
  m_l =   -2          -1           0           1           2
  0.92593152  0.04277454  0.02825917  0.05211411 -0.01397860
  0.04275939  0.86731745 -0.02553888  0.03889651  0.02454896
  0.02828513 -0.02555351  0.98537124 -0.01472026  0.00711526
  0.05213273  0.03891965 -0.01470039  0.91236924 -0.00037550
 -0.01396129  0.02453959  0.00710420 -0.00038331  0.99193288
################################################################################
Occupancy matrix of Hubbard site      1 and spin      2 is 
  m_l =   -2          -1           0           1           2
  0.92566152  0.03974426  0.03650337  0.04742937 -0.01474411
  0.03973035  0.85614458  0.00959306  0.02048412  0.02097238
  0.03653268  0.00960717  0.88248275  0.03850635  0.01722543
  0.04744875  0.02050363  0.03849275  0.88558555 -0.00558952
 -0.01472695  0.02096146  0.01721077 -0.00559868  0.99095515
################################################################################
Total occupancy of Hubbard site      1 is         9.22375187 e
Local magnetic moment of Hubbard site      1 is   0.14209278 mu_B
DFT+U energy of Hubbard site      1 is            0.04840321 Ha
################################################################################

      ideal mu1:      -0.612842306863
      ideal mu2:      -0.618464946846
             Q0:        -223.786753587343
             G0:     -21.445059234354
   RMS gradient:       0.088806062031
    Initial Ne1:      30.99999994
    Initial Ne2:      29.99999993
      Final Ne1:      31.00000000
      Final Ne2:      30.00000000

=================== Penalty functional idempotency correction ==================
 RMS occupancy error at iteration   1:  0.056547 (step -0.3445 Ne1=     31.0000)
                                                               Ne2=     30.0000
 RMS occupancy error at iteration   2:  0.004794 (step -0.4933 Ne1=     31.0000)
                                                               Ne2=     30.0000
 RMS occupancy error at iteration   3:  0.000068 (step -0.5004 Ne1=     31.0000)
                                                               Ne2=     30.0000
            Final RMS occupancy error   :  0.000000 (Ne1=     31.0000)
                                                     Ne2=     30.0000
            Final occupancy bounds spin 1: [ -0.000,  1.000]
            Final occupancy bounds spin 2: [ -0.000,  1.000]
================================================================================

    3        -2.237867535873E+02     8.8806E-02     5.0597E-02    -2.0108E+00

################################################################################
DFT+U information on atom      1 of Hubbard species Fe  
################################################################################
Occupancy matrix of Hubbard site      1 and spin      1 is 
  m_l =   -2          -1           0           1           2
  0.83355091  0.08476646  0.06025496  0.11822104 -0.03203560
  0.08473522  0.71571422 -0.05406602  0.08429892  0.05469744
  0.06031107 -0.05409652  0.96720581 -0.03353384  0.01589654
  0.11826234  0.08434891 -0.03348951  0.80392317  0.00027750
 -0.03199996  0.05468033  0.01587308  0.00026040  0.97684262
################################################################################
Occupancy matrix of Hubbard site      1 and spin      2 is 
  m_l =   -2          -1           0           1           2
  0.83255497  0.07718435  0.08073209  0.10730904 -0.03391227
  0.07715569  0.68811930  0.02872117  0.04332250  0.04654826
  0.08079810  0.02875849  0.73217725  0.08132090  0.03836370
  0.10735154  0.04336502  0.08129127  0.74939346 -0.01066882
 -0.03387705  0.04652783  0.03833151 -0.01068855  0.97470855
################################################################################
Total occupancy of Hubbard site      1 is         8.27419025 e
Local magnetic moment of Hubbard site      1 is   0.32028320 mu_B
DFT+U energy of Hubbard site      1 is            0.08524918 Ha
################################################################################

      ideal mu1:      -0.975450021253
      ideal mu2:      -0.986267111061
             Q0:        -224.951468165023
             G0:      -9.355572440623
   RMS gradient:       0.074054769437
    Initial Ne1:      31.00000001
    Initial Ne2:      30.00000010
      Final Ne1:      31.00000000
      Final Ne2:      30.00000000

=================== Penalty functional idempotency correction ==================
 RMS occupancy error at iteration   1:  0.067525 (step -0.3213 Ne1=     31.0000)
                                                               Ne2=     30.0000
 RMS occupancy error at iteration   2:  0.005513 (step -0.4911 Ne1=     31.0000)
                                                               Ne2=     30.0000
 RMS occupancy error at iteration   3:  0.000073 (step -0.5004 Ne1=     31.0000)
                                                               Ne2=     30.0000
            Final RMS occupancy error   :  0.000000 (Ne1=     31.0000)
                                                     Ne2=     30.0000
            Final occupancy bounds spin 1: [ -0.000,  1.000]
            Final occupancy bounds spin 2: [ -0.000,  1.000]
================================================================================

    4        -2.249514681650E+02     7.4055E-02     4.2128E-02    -1.1647E+00

################################################################################
DFT+U information on atom      1 of Hubbard species Fe  
################################################################################
Occupancy matrix of Hubbard site      1 and spin      1 is 
  m_l =   -2          -1           0           1           2
  0.75062712  0.11606890  0.08677236  0.17592737 -0.04674973
  0.11602533  0.59041040 -0.07692763  0.12299070  0.07922563
  0.08685404 -0.07697044  0.94997152 -0.05092835  0.02287541
  0.17598835  0.12306326 -0.05086220  0.70655251  0.00056628
 -0.04669889  0.07920323  0.02284203  0.00054072  0.95955575
################################################################################
Occupancy matrix of Hubbard site      1 and spin      2 is 
  m_l =   -2          -1           0           1           2
  0.74824414  0.10370480  0.12014221  0.15919238 -0.04985254
  0.10366483  0.54638325  0.04957386  0.06300114  0.06702541
  0.12024173  0.04963480  0.59897569  0.11372305  0.05612650
  0.15925472  0.06306339  0.11368157  0.63121336 -0.01498702
 -0.04980235  0.06699819  0.05607952 -0.01501616  0.95632935
################################################################################
Total occupancy of Hubbard site      1 is         7.43826310 e
Local magnetic moment of Hubbard site      1 is   0.47597151 mu_B
DFT+U energy of Hubbard site      1 is            0.09877906 Ha
################################################################################

      ideal mu1:      -1.178256461621
      ideal mu2:      -1.187009184864
    5        -2.254095051767E+02     7.1372E-02     4.0560E-02    -4.5804E-01
Finished density kernel iterations (   5)

Writing density kernel to file "Fe_H2O_6_LowSpin.dkn" ... done


>>> Density kernel optimised for the current NGWF basis:
     ~~~~~~~~~~~~~~~~~~~~~~~~~~~~~~~~~~~~~~~~~~~~~~~~~~~~~~~~~~~
     Total energy                =  -2.25409505176689E+02  Eh
     Estimated bandgap (UP spin) =  -1.1522E-01  Eh
     Estimated bandgap (DN spin) =  -1.2382E-01  Eh
     RMS occupancy error         =   2.3790E-08
     [H,K] commutator            =   4.0560E-02
     UP spin occupancy bounds    = [ -0.000:  1.000]
     DN spin occupancy bounds    = [ -0.000:  1.000]
     ~~~~~~~~~~~~~~~~~~~~~~~~~~~~~~~~~~~~~~~~~~~~~~~~~~~~~~~~~~~




################################################################################
########################### NGWF CG iteration  001 #############################
################################################################################
****** Reciprocal space K.E. preconditioning with k_zero =  3.0000 a0^-1 *******

>>> Checking for convergence of NGWFs:   NOT CONVERGED
  ========================================================================
         NGWF RMS gradient =  1.2869E-03 >  2.0000E-06  | above tolerance
  ========================================================================

>>> Improving NGWFs using line search:
============ Calculation of NGWF S^-1 using Hotelling algorithm ================ 
     Iteration  |  Spin  |  Frobenius norm and Maximum abs value (of I-S*S_n^-1)
         1           1      0.86179439E-01     0.32039889E-01
         2           1      0.11789060E-02     0.40703074E-03
         3           1      0.40138177E-06     0.14271152E-06
         4           1      0.47599180E-13     0.17097435E-13
================================================================================

################################################################################
DFT+U information on atom      1 of Hubbard species Fe  
################################################################################
Occupancy matrix of Hubbard site      1 and spin      1 is 
  m_l =   -2          -1           0           1           2
  0.74816783  0.11705806  0.08778134  0.17791493 -0.04714373
  0.11701417  0.58703192 -0.07743597  0.12441486  0.08013354
  0.08786402 -0.07747892  0.94968718 -0.05150187  0.02309216
  0.17797656  0.12448828 -0.05143499  0.70383996  0.00034114
 -0.04709222  0.08011113  0.02305847  0.00031519  0.95953765
################################################################################
Occupancy matrix of Hubbard site      1 and spin      2 is 
  m_l =   -2          -1           0           1           2
  0.74573976  0.10456828  0.12146456  0.16104445 -0.05028122
  0.10452801  0.54266701  0.04986556  0.06408967  0.06784425
  0.12156529  0.04992701  0.59680311  0.11392712  0.05656340
  0.16110744  0.06415273  0.11388585  0.62818613 -0.01530401
 -0.05023039  0.06781698  0.05651603 -0.01533358  0.95628452
################################################################################
Total occupancy of Hubbard site      1 is         7.41794506 e
Local magnetic moment of Hubbard site      1 is   0.47858401 mu_B
DFT+U energy of Hubbard site      1 is            0.09873575 Ha
################################################################################

============ Calculation of NGWF S^-1 using Hotelling algorithm ================ 
     Iteration  |  Spin  |  Frobenius norm and Maximum abs value (of I-S*S_n^-1)
         1           1      0.62525045E+00     0.22541017E+00
         2           1      0.62411607E-01     0.20564521E-01
         3           1      0.11742608E-02     0.39026642E-03
         4           1      0.48290611E-06     0.16447185E-06
         5           1      0.99756080E-13     0.36401437E-13
================================================================================
------------------------------- NGWF line search -------------------------------
RMS gradient                =       0.00128693422970
Trial step length           =               0.122474
Gradient along search dir.  =         -2.62032656205
Functional at step 0        =    -225.40950517668944
Functional at step 1        =    -225.71102189672493
Functional predicted        =    -226.73627753877574
Selected quadratic step     =               1.012677
Conjugate gradients coeff.  =               0.000000
--------------------------- NGWF line search finished --------------------------
                                               
Writing NGWFs to file "Fe_H2O_6_LowSpin.tightbox_ngwfs".... done

>>> Optimising kernel for current NGWFs:
   Initial electron number for spin 1:      31.26725642
   Initial electron number for spin 2:      30.26176470
     Final electron number for spin 1:      31.00000000
     Final electron number for spin 2:      30.00000000

=================== Penalty functional idempotency correction ==================
 RMS occupancy error at iteration   1:  0.007981 (step -0.4848 Ne1=     31.0000)
                                                               Ne2=     30.0000
 RMS occupancy error at iteration   2:  0.000316 (step -0.5031 Ne1=     31.0000)
                                                               Ne2=     30.0000
 RMS occupancy error at iteration   3:  0.000001 (step -0.5000 Ne1=     31.0000)
                                                               Ne2=     30.0000
            Final RMS occupancy error   :  0.000000 (Ne1=     31.0000)
                                                     Ne2=     30.0000
            Final occupancy bounds spin 1: [  0.000,  1.000]
            Final occupancy bounds spin 2: [  0.000,  1.000]
================================================================================

................................................................................
<<<<<<<<<<<<<< LNV (Original version) density kernel optimisation >>>>>>>>>>>>>>
~~~~~~~~~~~~~~~~~~~~~~~~~~~~~~~~~~~~~~~~~~~~~~~~~~~~~~~~~~~~~~~~~~~~~~~~~~~~~~~~
   iter  |      energy (Eh)       | rms gradient |  commutator  |   dE (Eh)

################################################################################
DFT+U information on atom      1 of Hubbard species Fe  
################################################################################
Occupancy matrix of Hubbard site      1 and spin      1 is 
  m_l =   -2          -1           0           1           2
  0.72941773  0.12393187  0.09489866  0.19207477 -0.04991088
  0.12388582  0.56218522 -0.08117351  0.13463619  0.08666778
  0.09498836 -0.08121757  0.94706879 -0.05583473  0.02459359
  0.19214105  0.13471572 -0.05576251  0.68359439 -0.00130537
 -0.04985471  0.08664540  0.02455772 -0.00133409  0.95815806
################################################################################
Occupancy matrix of Hubbard site      1 and spin      2 is 
  m_l =   -2          -1           0           1           2
  0.72665934  0.11052192  0.13087285  0.17423083 -0.05330182
  0.11047961  0.51531753  0.05201503  0.07186225  0.07373041
  0.13098218  0.05208014  0.58037605  0.11524632  0.05966140
  0.17429843  0.07193107  0.11520662  0.60566381 -0.01761296
 -0.05324639  0.07370288  0.05961129 -0.01764550  0.95472332
################################################################################
Total occupancy of Hubbard site      1 is         7.26316424 e
Local magnetic moment of Hubbard site      1 is   0.49768414 mu_B
DFT+U energy of Hubbard site      1 is            0.09838055 Ha
################################################################################

      ideal mu1:      -1.093481759859
      ideal mu2:      -1.103808813138
             Q0:        -226.744298778247
             G0:      -1.016156750321
   RMS gradient:       0.029093721087

################################################################################
DFT+U information on atom      1 of Hubbard species Fe  
################################################################################
Occupancy matrix of Hubbard site      1 and spin      1 is 
  m_l =   -2          -1           0           1           2
  0.66403379  0.15127514  0.11953503  0.23976392 -0.05728874
  0.15122137  0.47588561 -0.09653896  0.16966990  0.10541478
  0.11964903 -0.09658905  0.93809733 -0.07227695  0.02817789
  0.23984699  0.16977017 -0.07218449  0.60551236 -0.00773318
 -0.05721507  0.10538957  0.02813448 -0.00777273  0.95274168
################################################################################
Occupancy matrix of Hubbard site      1 and spin      2 is 
  m_l =   -2          -1           0           1           2
  0.65720743  0.13248900  0.17032550  0.21624821 -0.06258700
  0.13243968  0.40845177  0.07945541  0.08879489  0.08852997
  0.17046929  0.07954899  0.47057815  0.14152985  0.07421570
  0.21633245  0.08888216  0.14148221  0.50853033 -0.02873299
 -0.06251435  0.08849760  0.07415425 -0.02877785  0.94729731
################################################################################
Total occupancy of Hubbard site      1 is         6.62833576 e
Local magnetic moment of Hubbard site      1 is   0.64420578 mu_B
DFT+U energy of Hubbard site      1 is            0.09058457 Ha
################################################################################

     Trial step:       0.500000000000
             Q1:        -226.862053144294
 Quadratic coef:       0.390324009113
 Linear coef   :      -0.508078375160
           Qmin:        -226.909638104856
Quadratic minimum step length (  0.325420908846) accepted
    Initial Ne1:      31.00000000
    Initial Ne2:      30.00000000
      Final Ne1:      31.00000000
      Final Ne2:      30.00000000

=================== Penalty functional idempotency correction ==================
 RMS occupancy error at iteration   1:  0.004137 (step -0.4854 Ne1=     31.0000)
                                                               Ne2=     30.0000
 RMS occupancy error at iteration   2:  0.000029 (step -0.5000 Ne1=     31.0000)
                                                               Ne2=     30.0000
            Final RMS occupancy error   :  0.000000 (Ne1=     31.0000)
                                                     Ne2=     30.0000
            Final occupancy bounds spin 1: [  0.000,  1.000]
            Final occupancy bounds spin 2: [  0.000,  1.000]
================================================================================

    1        -2.267442987782E+02     2.9094E-02     1.6557E-02

################################################################################
DFT+U information on atom      1 of Hubbard species Fe  
################################################################################
Occupancy matrix of Hubbard site      1 and spin      1 is 
  m_l =   -2          -1           0           1           2
  0.68538694  0.14242957  0.11148329  0.22433236 -0.05504401
  0.14237820  0.50349134 -0.09164473  0.15824421  0.09937183
  0.11158933 -0.09169297  0.94101399 -0.06685474  0.02709297
  0.22440999  0.15833771 -0.06676893  0.63094051 -0.00543171
 -0.05497614  0.09934746  0.02705197 -0.00546764  0.95452310
################################################################################
Occupancy matrix of Hubbard site      1 and spin      2 is 
  m_l =   -2          -1           0           1           2
  0.67991833  0.12553379  0.15733277  0.20272708 -0.05970806
  0.12548664  0.44293724  0.07001557  0.08339365  0.08383151
  0.15746518  0.07009948  0.50662950  0.13296659  0.06949771
  0.20280596  0.08347490  0.13292153  0.54014577 -0.02487667
 -0.05964110  0.08380064  0.06943989 -0.02491741  0.94976525
################################################################################
Total occupancy of Hubbard site      1 is         6.83475196 e
Local magnetic moment of Hubbard site      1 is   0.59595978 mu_B
DFT+U energy of Hubbard site      1 is            0.09437910 Ha
################################################################################

      ideal mu1:      -1.110867472299
      ideal mu2:      -1.118654679666
             Q0:        -226.911997715455
             G0:      -0.599191524260
   RMS gradient:       0.022034583044

################################################################################
DFT+U information on atom      1 of Hubbard species Fe  
################################################################################
Occupancy matrix of Hubbard site      1 and spin      1 is 
  m_l =   -2          -1           0           1           2
  0.65412115  0.15848963  0.12672349  0.24896244 -0.05574648
  0.15843620  0.47194264 -0.09700202  0.17925252  0.11009260
  0.12684465 -0.09704994  0.94086371 -0.07585992  0.02759940
  0.24904880  0.17935889 -0.07576261  0.59510118 -0.01485634
 -0.05566540  0.11006910  0.02755492 -0.01490083  0.95964279
################################################################################
Occupancy matrix of Hubbard site      1 and spin      2 is 
  m_l =   -2          -1           0           1           2
  0.64392507  0.13767654  0.18381751  0.22382835 -0.06219021
  0.13762759  0.39431341  0.09339942  0.09237711  0.09181130
  0.18397329  0.09350622  0.44788022  0.14959611  0.07786699
  0.22391575  0.09247000  0.14954663  0.49109719 -0.03788618
 -0.06211017  0.09177939  0.07780399 -0.03793710  0.95311081
################################################################################
Total occupancy of Hubbard site      1 is         6.55199818 e
Local magnetic moment of Hubbard site      1 is   0.69134479 mu_B
DFT+U energy of Hubbard site      1 is            0.08546092 Ha
################################################################################

     Trial step:       0.403373839537
             Q1:        -226.977960520746
 Quadratic coef:       0.175735380468
 Linear coef   :      -0.241698185759
           Qmin:        -226.995102797715
Quadratic minimum step length (  0.277390713638) accepted
    Initial Ne1:      30.99999995
    Initial Ne2:      29.99999993
      Final Ne1:      31.00000000
      Final Ne2:      30.00000000

=================== Penalty functional idempotency correction ==================
 RMS occupancy error at iteration   1:  0.006469 (step -0.4777 Ne1=     31.0000)
                                                               Ne2=     30.0000
 RMS occupancy error at iteration   2:  0.000097 (step -0.5002 Ne1=     31.0000)
                                                               Ne2=     30.0000
            Final RMS occupancy error   :  0.000000 (Ne1=     31.0000)
                                                     Ne2=     30.0000
            Final occupancy bounds spin 1: [  0.000,  1.000]
            Final occupancy bounds spin 2: [  0.000,  1.000]
================================================================================

    2        -2.269119977155E+02     2.2035E-02     1.2517E-02    -1.6770E-01

################################################################################
DFT+U information on atom      1 of Hubbard species Fe  
################################################################################
Occupancy matrix of Hubbard site      1 and spin      1 is 
  m_l =   -2          -1           0           1           2
  0.66293136  0.15400084  0.12239934  0.24222736 -0.05577169
  0.15394785  0.48015520 -0.09568952  0.17335317  0.10714240
  0.12251620 -0.09573773  0.94101928 -0.07332889  0.02756050
  0.24231132  0.17345590 -0.07323481  0.60509421 -0.01191048
 -0.05569448  0.10711854  0.02751694 -0.01195244  0.95819957
################################################################################
Occupancy matrix of Hubbard site      1 and spin      2 is 
  m_l =   -2          -1           0           1           2
  0.65410317  0.13443447  0.17617971  0.21816068 -0.06169000
  0.13438588  0.40757167  0.08617700  0.09003036  0.08970156
  0.17632873  0.08627684  0.46476163  0.14480400  0.07553059
  0.21824577  0.09011998  0.14475581  0.50481352 -0.03388355
 -0.06161377  0.08966985  0.07546895 -0.03393144  0.95217145
################################################################################
Total occupancy of Hubbard site      1 is         6.63082105 e
Local magnetic moment of Hubbard site      1 is   0.66397819 mu_B
DFT+U energy of Hubbard site      1 is            0.08824929 Ha
################################################################################

      ideal mu1:      -1.104728574189
      ideal mu2:      -1.111744696811
             Q0:        -227.003153175156
             G0:      -0.176665345809
   RMS gradient:       0.011459495709

################################################################################
DFT+U information on atom      1 of Hubbard species Fe  
################################################################################
Occupancy matrix of Hubbard site      1 and spin      1 is 
  m_l =   -2          -1           0           1           2
  0.65889578  0.15932456  0.12708536  0.24490554 -0.05189737
  0.15927323  0.48686654 -0.09383345  0.17931511  0.10886716
  0.12720700 -0.09387819  0.94343999 -0.07536283  0.02584586
  0.24499077  0.17942188 -0.07526578  0.60135267 -0.01997157
 -0.05181349  0.10884524  0.02580237 -0.02001810  0.96477316
################################################################################
Occupancy matrix of Hubbard site      1 and spin      2 is 
  m_l =   -2          -1           0           1           2
  0.64629212  0.13809831  0.18666142  0.21983932 -0.05893574
  0.13805130  0.40474011  0.09898567  0.09169608  0.09045574
  0.18681984  0.09909720  0.45227993  0.15004887  0.07712617
  0.21992562  0.09178961  0.15000013  0.49540290 -0.04372861
 -0.05885271  0.09042480  0.07706457 -0.04378222  0.95792223
################################################################################
Total occupancy of Hubbard site      1 is         6.61196543 e
Local magnetic moment of Hubbard site      1 is   0.69869085 mu_B
DFT+U energy of Hubbard site      1 is            0.08500379 Ha
################################################################################

     Trial step:       0.334502850828
             Q1:        -227.040255296543
 Quadratic coef:       0.021992940428
 Linear coef   :      -0.059095061815
           Qmin:        -227.042850303677
Quadratic minimum step length (  0.449404814962) accepted
    Initial Ne1:      30.99999280
    Initial Ne2:      29.99999370
      Final Ne1:      31.00000000
      Final Ne2:      30.00000000

=================== Penalty functional idempotency correction ==================
 RMS occupancy error at iteration   1:  0.005462 (step -0.4815 Ne1=     31.0000)
                                                               Ne2=     30.0000
 RMS occupancy error at iteration   2:  0.000073 (step -0.5002 Ne1=     31.0000)
                                                               Ne2=     30.0000
            Final RMS occupancy error   :  0.000000 (Ne1=     31.0000)
                                                     Ne2=     30.0000
            Final occupancy bounds spin 1: [  0.000,  1.000]
            Final occupancy bounds spin 2: [  0.000,  1.000]
================================================================================

    3        -2.270031531752E+02     1.1459E-02     6.5086E-03    -9.1155E-02

################################################################################
DFT+U information on atom      1 of Hubbard species Fe  
################################################################################
Occupancy matrix of Hubbard site      1 and spin      1 is 
  m_l =   -2          -1           0           1           2
  0.65762455  0.16089642  0.12850225  0.24548301 -0.05050940
  0.16084573  0.48945925 -0.09311144  0.18108707  0.10929825
  0.12862535 -0.09315498  0.94406684 -0.07598889  0.02522009
  0.24556856  0.18119505 -0.07589093  0.60024597 -0.02266991
 -0.05042338  0.10927702  0.02517669 -0.02271792  0.96665274
################################################################################
Occupancy matrix of Hubbard site      1 and spin      2 is 
  m_l =   -2          -1           0           1           2
  0.64376022  0.13909987  0.19002638  0.22008588 -0.05792394
  0.13905347  0.40413621  0.10335722  0.09206505  0.09056409
  0.19018783  0.10347269  0.44814818  0.15171781  0.07758423
  0.22017248  0.09215977  0.15166887  0.49250291 -0.04701733
 -0.05783871  0.09053345  0.07752272 -0.04707281  0.95955885
################################################################################
Total occupancy of Hubbard site      1 is         6.60615571 e
Local magnetic moment of Hubbard site      1 is   0.70994297 mu_B
DFT+U energy of Hubbard site      1 is            0.08402768 Ha
################################################################################

      ideal mu1:      -1.125303539749
      ideal mu2:      -1.132416179651
             Q0:        -227.046502111832
             G0:      -0.064584462925
   RMS gradient:       0.006969469195

################################################################################
DFT+U information on atom      1 of Hubbard species Fe  
################################################################################
Occupancy matrix of Hubbard site      1 and spin      1 is 
  m_l =   -2          -1           0           1           2
  0.65458619  0.16748469  0.13219542  0.24221009 -0.04254768
  0.16743704  0.50335114 -0.08927370  0.18564444  0.10756291
  0.13232250 -0.08931229  0.94469103 -0.07809281  0.02138228
  0.24229561  0.18575571 -0.07799194  0.59621525 -0.03408507
 -0.04245328  0.10754328  0.02134012 -0.03413893  0.97132011
################################################################################
Occupancy matrix of Hubbard site      1 and spin      2 is 
  m_l =   -2          -1           0           1           2
  0.63557920  0.14355449  0.20098480  0.21581064 -0.05126848
  0.14351101  0.40664383  0.11844325  0.09271295  0.08790048
  0.20115622  0.11857199  0.43902607  0.15464613  0.07692217
  0.21589712  0.09281110  0.15459852  0.48300569 -0.06047485
 -0.05117453  0.08787010  0.07686224 -0.06053765  0.96356421
################################################################################
Total occupancy of Hubbard site      1 is         6.59798272 e
Local magnetic moment of Hubbard site      1 is   0.74234473 mu_B
DFT+U energy of Hubbard site      1 is            0.08211375 Ha
################################################################################

     Trial step:       0.387720507299
             Q1:        -227.065622501666
 Quadratic coef:       0.005920330894
 Linear coef   :      -0.025040720729
           Qmin:        -227.072980264227
Quadratic minimum step length (  0.819954248945) accepted
    Initial Ne1:      30.99998778
[...]
**********************************************************
TOTAL:              0.01635342  -0.00282992   0.00019412
 
********************* Unconstrained **********************
************ NGWF non self-consistent forces *************
*                                                        *
* Element  Atom         Cartesian components (Eh/a)      *
* ------------------------------------------------------ *
*                       x            y            z      *
*                                                        *
*    Fe      1      0.00000185  -0.00002834   0.00000044 *
*    O       2     -0.00003184  -0.00002808   0.00014220 *
*    O       3      0.00001933   0.00001613  -0.00015006 *
*    O       4     -0.00025174   0.00025482   0.00006350 *
*    O       5      0.00024413  -0.00027288  -0.00005959 *
*    O       6      0.00031544  -0.00037697  -0.00055208 *
*    O       7     -0.00031814   0.00037680   0.00055797 *
*    H       8      0.00003524  -0.00005439  -0.00003263 *
*    H       9     -0.00000222  -0.00004249   0.00006644 *
*    H      10      0.00009530   0.00000038   0.00004275 *
*    H      11      0.00006319   0.00003933   0.00001032 *
*    H      12     -0.00003499   0.00000234  -0.00010789 *
*    H      13     -0.00002593   0.00000781   0.00004743 *
*    H      14     -0.00000039   0.00004060  -0.00006650 *
*    H      15      0.00002550  -0.00000667  -0.00004702 *
*    H      16      0.00003364  -0.00000215   0.00010829 *
*    H      17     -0.00003604   0.00005483   0.00003199 *
*    H      18     -0.00006296  -0.00004192  -0.00000827 *
*    H      19     -0.00009532  -0.00000220  -0.00004370 *
*                                                        *
**********************************************************
TOTAL:             -0.00002595  -0.00006306   0.00000359
 
********************* Unconstrained **********************
********************** NLCC forces ***********************
*                                                        *
* Element  Atom         Cartesian components (Eh/a)      *
* ------------------------------------------------------ *
*                       x            y            z      *
*                                                        *
*    Fe      1     -0.00000000   0.00000000   0.00000000 *
*    O       2     -0.00000190  -0.00000059  -0.00000167 *
*    O       3      0.00000188   0.00000053   0.00000170 *
*    O       4      0.00000035   0.00000276  -0.00000042 *
*    O       5     -0.00000040  -0.00000271   0.00000047 *
*    O       6     -0.00000233   0.00000130   0.00000069 *
*    O       7      0.00000225  -0.00000130  -0.00000079 *
*    H       8      0.00000000   0.00000000   0.00000000 *
*    H       9      0.00000000   0.00000000   0.00000000 *
*    H      10      0.00000000   0.00000000   0.00000000 *
*    H      11      0.00000000   0.00000000   0.00000000 *
*    H      12      0.00000000   0.00000000   0.00000000 *
*    H      13      0.00000000   0.00000000   0.00000000 *
*    H      14      0.00000000   0.00000000   0.00000000 *
*    H      15      0.00000000   0.00000000   0.00000000 *
*    H      16      0.00000000   0.00000000   0.00000000 *
*    H      17      0.00000000   0.00000000   0.00000000 *
*    H      18      0.00000000   0.00000000   0.00000000 *
*    H      19      0.00000000   0.00000000   0.00000000 *
*                                                        *
**********************************************************
TOTAL:             -0.00000015  -0.00000001  -0.00000002
 
********************* Unconstrained **********************
********************** DFT+U forces **********************
*                                                        *
* Element  Atom         Cartesian components (Eh/a)      *
* ------------------------------------------------------ *
*                       x            y            z      *
*                                                        *
*    Fe      1      0.00000317   0.00000055  -0.00000068 *
*    O       2      0.00000000   0.00000000   0.00000000 *
*    O       3      0.00000000   0.00000000   0.00000000 *
*    O       4      0.00000000   0.00000000   0.00000000 *
*    O       5      0.00000000   0.00000000   0.00000000 *
*    O       6      0.00000000   0.00000000   0.00000000 *
*    O       7      0.00000000   0.00000000   0.00000000 *
*    H       8      0.00000000   0.00000000   0.00000000 *
*    H       9      0.00000000   0.00000000   0.00000000 *
*    H      10      0.00000000   0.00000000   0.00000000 *
*    H      11      0.00000000   0.00000000   0.00000000 *
*    H      12      0.00000000   0.00000000   0.00000000 *
*    H      13      0.00000000   0.00000000   0.00000000 *
*    H      14      0.00000000   0.00000000   0.00000000 *
*    H      15      0.00000000   0.00000000   0.00000000 *
*    H      16      0.00000000   0.00000000   0.00000000 *
*    H      17      0.00000000   0.00000000   0.00000000 *
*    H      18      0.00000000   0.00000000   0.00000000 *
*    H      19      0.00000000   0.00000000   0.00000000 *
*                                                        *
**********************************************************
TOTAL:              0.00000317   0.00000055  -0.00000068
 
********************* Unconstrained **********************
****** Correction to ensure the total force is zero ******
*                                                        *
* Element  Atom         Cartesian components (Eh/a)      *
* ------------------------------------------------------ *
*                       x            y            z      *
*                                                        *
*    Fe      1      0.00000180   0.00000111   0.00000005 *
*    O       2      0.00000180   0.00000111   0.00000005 *
*    O       3      0.00000180   0.00000111   0.00000005 *
*    O       4      0.00000180   0.00000111   0.00000005 *
*    O       5      0.00000180   0.00000111   0.00000005 *
*    O       6      0.00000180   0.00000111   0.00000005 *
*    O       7      0.00000180   0.00000111   0.00000005 *
*    H       8      0.00000180   0.00000111   0.00000005 *
*    H       9      0.00000180   0.00000111   0.00000005 *
*    H      10      0.00000180   0.00000111   0.00000005 *
*    H      11      0.00000180   0.00000111   0.00000005 *
*    H      12      0.00000180   0.00000111   0.00000005 *
*    H      13      0.00000180   0.00000111   0.00000005 *
*    H      14      0.00000180   0.00000111   0.00000005 *
*    H      15      0.00000180   0.00000111   0.00000005 *
*    H      16      0.00000180   0.00000111   0.00000005 *
*    H      17      0.00000180   0.00000111   0.00000005 *
*    H      18      0.00000180   0.00000111   0.00000005 *
*    H      19      0.00000180   0.00000111   0.00000005 *
*                                                        *
**********************************************************
TOTAL:              0.00003413   0.00002102   0.00000094

********************* Unconstrained **********************
************************* Forces *************************
*                                                        *
* Element  Atom         Cartesian components (Eh/a)      *
* ------------------------------------------------------ *
*                       x            y            z      *
*                                                        *
*    Fe      1      0.00001410   0.00015785  -0.00004804 *
*    O       2      0.00225343   0.00003468   0.00395982 *
*    O       3     -0.00217496  -0.00017794  -0.00400981 *
*    O       4     -0.00245673  -0.00159304   0.00213376 *
*    O       5      0.00231648   0.00141900  -0.00201369 *
*    O       6     -0.00035783  -0.00125244  -0.00245361 *
*    O       7      0.00021457   0.00119989   0.00240762 *
*    H       8      0.00056587   0.00869820   0.00069922 *
*    H       9     -0.00428492   0.00318625  -0.00680999 *
*    H      10     -0.00746899   0.00483973   0.00060071 *
*    H      11     -0.00769444  -0.00305201  -0.00297062 *
*    H      12     -0.00255066   0.00488072   0.00695134 *
*    H      13      0.00523331   0.00444233  -0.00463513 *
*    H      14      0.00431116  -0.00314025   0.00676727 *
*    H      15     -0.00519214  -0.00440552   0.00470555 *
*    H      16      0.00254553  -0.00481186  -0.00698570 *
*    H      17     -0.00049757  -0.00867745  -0.00064958 *
*    H      18      0.00774917   0.00304262   0.00292712 *
*    H      19      0.00747460  -0.00479075  -0.00057623 *
*                                                        *
**********************************************************
* TOTAL:           -0.00000000   0.00000000   0.00000000 *
**********************************************************
 
 
***********************************************************
********** Summary of Forces (values in Eh/a) *************
*                                                         *
* ---------------------- Minimum ------------------------ *
* Atom:         1, |F|min =    0.00016560                 *
* Components:     Fx|min       Fy|min       Fz|min        *
*               0.00001410   0.00015785  -0.00004804      *
*                                                         *
* ---------------------- Maximum ------------------------ *
* Atom:        10, |F|max =    0.00892018                 *
* Components:     Fx|max       Fy|max       Fz|max        *
*              -0.00746899   0.00483973   0.00060071      *
*                                                         *
* ---------------- Root Mean Square Force --------------- *
*                  |F|rms =    0.00722165                 *
* Components:     Fx|rms       Fy|rms       Fz|rms        *
*               0.00433553   0.00416535   0.00400067      *
***********************************************************
 

------------------------------ TIMING INFORMATION ------------------------------
AVERAGE TIME:    1354.488s on      6 proc(s)                                    
TOTAL TIME:      1354.488s on      6 proc(s)                                    
==================== AVERAGE TIMINGS FROM ALL PROCS (CUMULATIVE) =====================
|| TAG                                         #calls     cpu time   %total  Gflops ||
|| hash_table_free                            :    27        0.00s   0.000%  ------ ||
|| hubbard_species_proj                       :     1        0.00s   0.000%  ------ ||
|| hubbard_ngwf_on_grid                       :     1        0.00s   0.000%  ------ ||
|| sparse_spam3toblacs_real_fast_imbal        :     6        0.00s   0.000%  ------ ||
|| hubbard_projector_character                :     1        0.00s   0.000%  ------ ||
|| linalg_invert_sym_matrix                   :     2        0.00s   0.000%  ------ || (1 procs only)
|| hubbard_ngwf_select                        :     1        0.00s   0.000%  ------ ||
|| sparse_spam3toblacs_real_fast_B2           :    36        0.00s   0.000%  ------ ||
|| hubbard_tensorial_correction               :     2        0.00s   0.000%  ------ ||
|| sparse_blacstospam3_real_fast_imbal        :    24        0.00s   0.000%  ------ ||
|| ewald_calculate_forces_realspace           :     1        0.00s   0.000%  ------ ||
|| density_fftbox_interp_mult_imbal           :  3718        0.00s   0.000%  ------ ||
|| sparse_spam3toblacs_real_fast_B1           :    36        0.00s   0.000%  ------ ||
|| sparse_spam3toblacs_real_fast              :     6        0.00s   0.000%  ------ ||
|| linalg_dsyev_lt                            :   139        0.01s   0.001%  ------ || (1 procs only)
|| onetep.F90 final imbalance                 :     1        0.00s   0.000%  ------ ||
|| onetep.F90 main loop imbalance             :     1        0.00s   0.000%  ------ ||
|| sparse_set_to_garbage                      :   397        0.00s   0.000%  ------ ||
|| ewald_calculate_energy                     :     1        0.00s   0.000%  ------ ||
|| ewald_calculate_forces_recipspace          :     1        0.00s   0.000%  ------ ||
|| sw_bessel_init_cpu                         :     1        0.01s   0.001%  ------ || (1 procs only)
|| ewald_calculate_forces                     :     1        0.00s   0.000%  ------ ||
|| sparse_blacstospam3_real_fast              :    24        0.00s   0.000%  ------ ||
|| paw_dij_hartree                            :   155        0.01s   0.001%  ------ ||
|| sparse_init                                :     1        0.01s   0.001%  ------ ||
|| hubbard_projection_mtx                     :    29        0.01s   0.001%  ------ ||
|| linalg_dgemv                               :   104        0.02s   0.002%  ------ ||
|| sparse_embed_array_hotelling_invert        :    27        0.03s   0.002%  ------ ||
|| basis_extract_function_from_box            :   457        0.03s   0.002%  ------ ||
|| hubbard_ham_matrix                         :    72        0.03s   0.002%  ------ ||
|| hubbard_projector_ham                      :    71        0.04s   0.003%  ------ ||
|| augmentation_density_forces                :     1        0.04s   0.003%  ------ ||
|| sw_init                                    :   291        0.07s   0.005%  ------ ||
|| pseudo_make_structure_factor               :     1        0.07s   0.005%  ------ ||
|| palser_mano_kernel_optimise_spam3_embed    :     2        0.08s   0.006%  ------ ||
|| dense_eigensolve                           :     2        0.09s   0.006%  ------ ||
|| paw_tcore_density                          :     1        0.10s   0.008%  ------ ||
|| hubbard_calculate_forces                   :     1        0.11s   0.008%  ------ ||
|| ngwfs_initialise_from_radial               :     2        0.18s   0.014%  ------ ||
|| nonsc_forces_ngwfs_calc                    :     1        0.19s   0.014%  ------ ||
|| paw_tcore_hartree_on_grid                  :     1        0.20s   0.015%  ------ ||
|| hubbard_energy_total                       :   139        0.21s   0.015%  ------ ||
|| restart_kernel_write                       :    15        0.22s   0.016%  ------ ||
|| lnv_gradient_norm                          :    70        0.23s   0.017%  ------ ||
|| paw_sphere_density_on_grid                 :     1        0.24s   0.017%  ------ ||
|| kernel_purify                              :   220        0.29s   0.021%  ------ ||
|| integrals_grad_spam3                       :     2        0.29s   0.021%  ------ ||
|| paw_tcore_hartree_calc_forces              :     1        0.32s   0.023%  ------ ||
|| kernel_fix                                 :    70        0.40s   0.030%  ------ ||
|| function_ops_brappd_ketppd_spam3           :    56        0.45s   0.033%  ------ ||
|| sparse_trace                               :  6514        0.55s   0.040%  ------ ||
|| hubbard_projector_update                   :     1        0.89s   0.066%  ------ ||
|| restart_ngwfs_tightbox_output              :    13        1.12s   0.083%  ------ ||
|| projectors_func_grad_ovlp_box_spam3        :     3        1.14s   0.084%  ------ ||
|| paw_dataset_init                           :     3        1.25s   0.092%  ------ ||
|| aug_nl_calculate_forces                    :     1        1.25s   0.093%  ------ ||
|| sparse_product                             : 10400        1.33s   0.098%  ------ ||
|| paw_species_calc_proj_prec_mat             :     1        1.56s   0.115%  ------ ||
|| ngwf_gradient_coeffs                       :    14        1.59s   0.117%  ------ ||
|| fourier_apply_box_pair                     :   583        1.93s   0.142% 133.832 ||
|| basis_copy_function_to_box                 :  4141        2.06s   0.152%  ------ ||
|| basis_dot_function_with_box                : 100.5k       2.33s   0.172%  ------ ||
|| paw_nlcc_calculate_forces                  :     1        2.45s   0.181%  ------ ||
|| integrals_kinetic_spam3                    :    27        2.61s   0.192%  ------ ||
|| eigenstates_calculate                      :     1        3.39s   0.250%  ------ ||
|| cell_grid_extract_box_real                 :  3766        3.59s   0.265%  ------ ||
|| basis_add_function_to_box                  : 161.6k       4.16s   0.307%  ------ ||
|| density_batch_row_sums                     :   286        5.60s   0.414%  ------ ||
|| augmentation_screen_dij_spam3              :   147        5.98s   0.441%  ------ ||
|| energy_and_force_init_cell                 :     1        6.16s   0.455%  ------ ||
|| density_fftbox_deposit_to_cell             :  3718        7.10s   0.524%  ------ ||
|| cell_grid_deposit_box_real                 :  5202        8.14s   0.601%  ------ ||
|| forces_calculate                           :     1       11.43s   0.844%  ------ ||
|| density_init_guess_real                    :     2       11.77s   0.869%  ------ ||
|| aug_nonlocal_mat_spam3_embed_array         :   140       15.05s   1.111%  ------ ||
|| paw_dij_xc                                 :   155       16.46s   1.215%  ------ ||
|| projectors_func_ovlp_box_spam3             :    57       18.26s   1.348%  ------ ||
|| fourier_filter                             :   930       19.72s   1.456%  ------ ||
|| projectors_init_fftbox_recip               :   145       20.87s   1.540%  ------ ||
|| aug_density_on_grid_spam3                  :   143       23.63s   1.745%  ------ ||
|| integrals_locpot_mat_els_batch             :   156       26.45s   1.953%  ------ ||
|| fourier_filter_cell                        :   184       27.50s   2.030%  22.952 ||
|| hamiltonian_energy_components              :     3       29.06s   2.145%  ------ ||
|| fourier_interpolate                        :   930       31.30s   2.311%  ------ ||
|| hartree_on_grid_single                     :   142       37.73s   2.786%  ------ ||
|| fourier_interpolate_cell                   :   286       42.25s   3.119%  23.224 ||
|| fourier_interpolate_product                :  2335       67.41s   4.977%  ------ ||
|| properties_calculate                       :     1       72.02s   5.317%  ------ ||
|| density_fftbox_interpolate_multiply        :  3718       73.51s   5.427%  ------ ||
|| projectors_grad_precond_batch              :    28       75.32s   5.561%  ------ ||
|| fourier_apply_box                          : 15958       80.39s   5.935% 253.300 ||
|| potential_apply_to_ngwf_batch              :   156      104.97s   7.750%  ------ ||
|| integrals_locpot_dbl_grid                  :   156      131.47s   9.706%  ------ ||
|| projectors_gradient_batch                  :    56      133.66s   9.868%  ------ ||
|| fourier_apply_cell_forward                 :  1279      149.63s  11.047%  26.402 ||
|| fourier_apply_cell_backward                :  1279      162.10s  11.968%  24.369 ||
|| density_batch_interp_deposit               :   286      166.50s  12.292%  ------ ||
|| density_on_dbl_grid                        :   286      176.24s  13.012%  ------ ||
|| ngwf_gradient_build_batch                  :    28      274.23s  20.246%  ------ ||
|| ngwf_gradient_batch                        :    28      312.99s  23.107%  ------ ||
|| ngwf_gradient_lnv                          :    14      320.42s  23.656%  ------ ||
|| xc_energy_potential                        :   142      339.66s  25.077%  ------ ||
|| hamiltonian_lhxc_calculate                 :   137      692.01s  51.090%  ------ ||
|| lnv_denskernel_optimise_cg                 :    14      774.60s  57.188%  ------ ||
|| ngwf_cg_optimise                           :     1     1242.51s  91.733%  ------ ||
|| energy_and_forces                          :     1     1347.91s  99.514%  ------ ||
|| total_time                                 :     1     1354.49s 100.000%  ------ ||
======================================================================================
Overhead of generating timer report: 
- 0 ms averaging over threads,
- 0 ms ensuring consistency across MPI ranks,
- 0 ms printing in order.

Job completed: 28-06-2025 12:34 (+0100)

onetep_launcher: ONETEP seems to have finished correctly (zero exit code).
                 Brought to you by PID 253754 on nid002985.
