==================================================================================
It's Sat 28 Jun 2025 12:11:33 PM BST.
*** Starting onetep_launcher (node nid002975, PIDs 219004 219005 219006 219007 219008 219009)...
    - ONETEP arguments: Fe_H2O_6_HighSpin_NGWFSP.dat
    - Current directory: /mnt/lustre/a2fs-work3/work/e89/e89/phsmea/onetep_ali/Fe_H2O_6/HS/sp
    - Launcher executable directory: /mnt/lustre/a2fs-work3/work/e89/e89/phsmea/onetep_ali
    - (-e) ONETEP executable specified through command-line: /work/e89/e89/phsmea/onetep.archer2_2024_cray_2
      ... trying /work/e89/e89/phsmea/onetep.archer2_2024_cray_2
          -> looks OK
*** Setting up environment...
    - (-s) Process stack size: unlimited
    - (-t) OMP_NUM_THREADS: 8
    - (-o) OMP_STACKSIZE: 64M
    - (-c) Maximum core file size: 2048000
    - (-d) decfort_dump_flag: n
    - (-m) I_MPI_OFA_TRANSLATION_CACHE: 0
    - (-m) I_MPI_DAPL_TRANSLATION_CACHE: 0
    - (-m) I_MPI_DAPL_UD_TRANSLATION_CACHE: 0
*** Starting ONETEP...
    - /work/e89/e89/phsmea/onetep.archer2_2024_cray_2 Fe_H2O_6_HighSpin_NGWFSP.dat
=================================================================================
_________________________________________________________________________________
 +---------------------------------------------------------------+
 |                                                               |
 |        ####### #     # ####### ####### ####### ######         |
 |        #     # ##    # #          #    #       #     #        |
 |        #     # # #   # #          #    #       #     #        |
 |        #     # #  #  # #####      #    #####   ######         |
 |        #     # #   # # #          #    #       #              |
 |        #     # #    ## #          #    #       #              |
 |        ####### #     # #######    #    ####### #              |
 |                                                               |
 |        Linear-Scaling Ab Initio Total Energy Program          |
 |                                                               |
 |          Release for academic collaborators of ODG            |
 |                                             Version 7.3.0     |
 | Remote: git@github.com:Miesaz/onetep_mea.git                  |
 | Local branch: master                                          |
 | Commit ID: 4af45e89288c8df5499704252eec3e032ee3d0c8           |
 | Date: Tue Aug 6 11:28:44 2024 +0100                           |
 | Locally modified files:                                       |
 |   src/hubbard_build_mod.F90                                   |
 |   src/services_mod.F90                                        |
 |                                                               |
 +---------------------------------------------------------------+
 |                                                               |
 |  Authors:                                                     |
 |  Jacek Dziedzic, Peter D. Haynes, Nicholas D. M. Hine,        |
 |  Arash A. Mostofi, Mike C. Payne and Chris-Kriton Skylaris    |
 |                                                               |
 |  Contributors:                                                |
 |  J. Aarons, L. Andrinopoulos, P. W. Avraam, R. A. Bell,       |
 |  A. Bhandari, G. A. Bramley, R. J. Charlton, S. J. Clark,     |
 |  R. J. Clements, G. C. Constantinescu, F. Corsetti,           |
 |  N. Corsini, O. Dieguez, S. M. M. Dubois, K. K. B. Duff,      |
 |  J. M. Escartin, M. Escobar Azor, A. Greco,                   |
 |  H. Helal, Q. O. Hill, L. P. Lee, J.-H. Li,                   |
 |  T. Li, E. B. Linscott, G. Moynihan, D. D. O`Regan,           |
 |  O. K. Okan, E. Parkinson, M. J. S. Phipps,                   |
 |  C. J. Pickard, J. C. A. Prentice, M. I. J. Probert,          |
 |  L. E. Ratcliff, M. Robinson, A. Ruiz Serrano,                |
 |  M. dos Santos Dias, J. S. Spencer, E. W. Tait,               |
 |  G. Teobaldi, D. Turban, V. Vitale, K. A. Wilkinson,          |
 |  C. Weber, J. C. Womack, Chengcheng Xiao, N. Yeung,           |
 |  and T. J. Zuehlsdorff.                                       |
 |                                                               |
 |                                   Copyright (c) 2004-2025     |
 |                                                               |
 |  Please cite:                                                 |
 |  "The ONETEP linear-scaling density functional theory program"|
 |   J. Chem. Phys. 152(17) 174111 (2020)                        |
 |                                                               |
 |          in all publications arising from your use of ONETEP. |
 |                                                               |
 +---------------------------------------------------------------+
 |                                                               |
 |   ONETEP is based on developments described in the following  |
 |   publications:                                               |
 |                                                               |
 |  "Nonorthogonal generalized Wannier function pseudopotential  |
 |   plane-wave method".                                         |
 |   C.-K. Skylaris, A. A. Mostofi, P. D. Haynes, O. Dieguez,    |
 |   M. C. Payne.                                                |
 |   Phys. Rev. B 66 035119 (2002).                              |
 |                                                               |
 |  "Preconditioned iterative minimization for linear-scaling    |
 |   electronic structure calculations".                         |
 |   A. A. Mostofi, P. D. Haynes, C.-K. Skylaris, M. C. Payne.   |
 |   J. Chem. Phys. 119(17), pp.8842-8848 (2003).                |
 |                                                               |
 |  "Total-energy calculations on a real space grid with         |
 |   localized functions and a plane-wave basis".                |
 |   A. A. Mostofi, C.-K. Skylaris, P. D. Haynes, M. C. Payne.   |
 |   Comput. Phys. Commun. 147, pp.788-802 (2002).               |
 |                                                               |
 |  "Accurate kinetic energy evaluation in electronic structure  |
 |   calculations with localized functions on real space grids"  |
 |   C.-K. Skylaris, A. A. Mostofi, P. D. Haynes, C. J. Pickard, |
 |   M. C. Payne.                                                |
 |   Comput. Phys. Commun. 140, pp.315-322 (2001).               |
 |                                                               |
 |  "Accurate ionic forces and geometry optimization in linear-  |
 |   scaling density-functional theory with local orbitals"      |
 |   N. D. M. Hine, M. Robinson, P. D. Haynes, C.-K. Skylaris,   |
 |   M. C. Payne, and A. A. Mostofi.                             |
 |   Phys. Rev. B 83 195102 (2011).                              |
 |                                                               |
 +---------------------------------------------------------------+

Job started: 28-06-2025 12:11 (+0100)
 
Reading parameters from file "Fe_H2O_6_HighSpin_NGWFSP.dat" ...... done

If your calculation crashes here, before "Checking processes and threads..."
is displayed, then your stack size is insufficient.
If so, use "ulimit -s unlimited" at runtime.
You can disable this check with "check_stack_size F".

Checking processes and threads...
   Determining the default number of threads...
      No default threads set at compilation time: defaulting to 1.
      OpenMP library call suggests 8 threads.
      Hybrid MPI-OpenMP compilation detected.
      Number of MPI processes > 1.
      OMP_NUM_THREADS environment variable present and
      its value matches the one obtained from the OpenMP library call.
      Using this value as default.
      Default threads: 8
      Default applies to threads_max and threads_num_fftboxes.
      Settings in the input file override this default.
   ... done

   Running with 6 MPI processes.
   There are 6 MPI processes running on the same node as the root process.
   Each MPI process is using: 
               1 threads for simulation cell FFTs.
               1 threads for threaded FFT box operations.
               8 threads for loops over batched FFT box operations.
               8 threads in other parallel regions.
   MPI Interface: S1 (use mpi_f08) (-DMPI -DUSE_MPI_F08).
   MPI_ASYNC_PROTECTS_NONBLOCKING: Yes. MPI_SUBARRAYS_SUPPORTED: Yes.
   FFTW Interface: OMP-capable and MODERN. (-DUSE_MODERN_FFTW specified).
   GPU Interface: None.
   GPU FFT Backend: None.
... done

Basic input checks...... done

Reading geometry and species blocks from file "Fe_H2O_6_HighSpin_NGWFSP.dat" ...
  <species_atomic_set> block not found: NGWF initialisation set to SOLVE
    
  Number of PPD points along a3 set to 1.  This is 
  the default value, it may have been provided also in the input file.
... done


--------------------------------------------------------------------------------
---------------------------------- INPUT FILE ----------------------------------
--------------------------------------------------------------------------------

charge : 3                                                                      
cutoff_energy : 800 eV                                                          
do_properties : T                                                               
edft : F                                                                        
fine_grid_scale : 4                                                             
forces_output_detail : VERBOSE                                                  
output_detail : VERBOSE                                                         
paw : T                                                                         
pseudo_path : ../../..                                                          
spin : 5                                                                        
task : SINGLEPOINT                                                              
write_denskern : T                                                              
write_forces : T                                                                
write_tightbox_ngwfs : T                                                        
xc_functional : pbe                                                             
ngwfs_spin_polarized : T                                                        
%BLOCK HUBBARD                                                                  
Fe 2 4.0 0 -10 0 0                                                              
%ENDBLOCK HUBBARD                                                               
%BLOCK LATTICE_CART                                                             
ang                                                                             
24.26273295       0.00000000       0.00000000                                   
0.00000000      24.37834389       0.00000000                                    
0.00000000       0.00000000      24.49207180                                    
%ENDBLOCK LATTICE_CART                                                          
%BLOCK POSITIONS_ABS                                                            
ang                                                                             
Fe    12.250834    12.347183    12.383732                                       
O    10.917918    12.146968    10.856178                                        
O    13.583304    12.546579    13.912161                                        
O    12.887136    14.120729    11.605769                                        
O    11.615952    10.572827    13.160958                                        
O    10.850840    13.339989    13.478875                                        
O    13.651816    11.355466    11.289061                                        
H    10.696459    14.301039    13.481892                                        
H    12.560868    14.548886    10.794767                                        
H    10.000000    12.470494    10.843615                                        
H    10.918955    10.000000    12.795645                                        
H    13.422087    12.984112    14.766573                                        
H    14.297832    11.752416    10.678656                                        
H    11.941917    10.145878    13.972648                                        
H    10.207412    12.944405    14.092914                                        
H    11.081036    11.713610    10.000000                                        
H    13.803190    10.393971    11.281531                                        
H    13.581663    14.695076    11.973417                                        
H    14.500246    12.220359    13.925451                                        
%ENDBLOCK POSITIONS_ABS                                                         
%BLOCK SPECIES                                                                  
Fe Fe 26 -1 10.0                                                                
H H 1 -1 10.0                                                                   
O O 8 -1 10.0                                                                   
%ENDBLOCK SPECIES                                                               
%BLOCK SPECIES_POT                                                              
Fe Fe.PBE-paw.abinit                                                            
H H.PBE-paw.abinit                                                              
O O.PBE-paw.abinit                                                              
%ENDBLOCK SPECIES_POT                                                           

--------------------------------------------------------------------------------
-------------------------------- END INPUT FILE --------------------------------
--------------------------------------------------------------------------------


 
 ESDF WARNING(1): "charge" (esdf_physical) has no units. Assume "e".
<<<<<<<<<<<<<<<<<<<<<<<<<<<<<<<<< Full system >>>>>>>>>>>>>>>>>>>>>>>>>>>>>>>>>>
<<<<<<<<<<<<<<<<<<<<<<<<<<< PAW Dataset information >>>>>>>>>>>>>>>>>>>>>>>>>>>
File: Fe.PBE-paw.abinit; rc = 2.12 bohr; shape type =  2; rshape = 1.81 bohr;
  Atomic number: 26;  ionic charge: 16.000000
    Partial Wave 1: l = 0
    Partial Wave 2: l = 0
    Partial Wave 3: l = 1
    Partial Wave 4: l = 1
    Partial Wave 5: l = 2
    Partial Wave 6: l = 2
  Core charge supplied for Nonlinear Core Corrections
File: O.PBE-paw.abinit; rc = 1.41 bohr; shape type =  2; rshape = 1.20 bohr;
  Atomic number:  8;  ionic charge:  6.000000
    Partial Wave 1: l = 0
    Partial Wave 2: l = 0
    Partial Wave 3: l = 1
    Partial Wave 4: l = 1
  Core charge supplied for Nonlinear Core Corrections
File: H.PBE-paw.abinit; rc = 0.90 bohr; shape type =  2; rshape = 0.80 bohr;
  Atomic number:  1;  ionic charge:  1.000000
    Partial Wave 1: l = 0
    Partial Wave 2: l = 0
    Partial Wave 3: l = 1
<<<<<<<<<<<<<<<<<<<<<<<<<<<<<<<<<<<<<<< >>>>>>>>>>>>>>>>>>>>>>>>>>>>>>>>>>>>>>>

-------------------------- Atom counting information ---------------------------
Symbol    Natoms    Nngwfs    Nprojs
  Fe         1        13        18
  O          6        24        48
  H         12        12        60
.......   ......    ......    ......
Totals:     19        49       126
--------------------------------------------------------------------------------

=============================== PSINC grid sizes ===============================
                      Simulation cell:   91 x  91 x  91
                              FFT-box:   91 x  91 x  91
                                  PPD:    7 x   7 x   1
Grid space d1=  0.503845280792a0 (KE cutoff=  29.92331Eh = 814.25466eV)
Grid space d2=  0.506246083152a0 (KE cutoff=  29.64017Eh = 806.54999eV)
Grid space d3=  0.508607782094a0 (KE cutoff=  29.36554Eh = 799.07702eV)
================================================================================

********************* Fourier parallelisation information **********************
       Coarse grid (whole simulation cell) dimensions:     91    91    91
          Real-space ('12') slabs/proc (min max mean):     15    16    15
         Recip-space ('23') slabs/proc (min max mean):      7     8     7
********************************************************************************

********************* Fourier parallelisation information **********************
       Double grid (whole simulation cell) dimensions:    182   182   182
          Real-space ('12') slabs/proc (min max mean):     30    31    30
         Recip-space ('23') slabs/proc (min max mean):     15    16    15
********************************************************************************

********************* Fourier parallelisation information **********************
         Fine grid (whole simulation cell) dimensions:    364   364   364
          Real-space ('12') slabs/proc (min max mean):     60    61    60
         Recip-space ('23') slabs/proc (min max mean):     30    31    30
********************************************************************************

Atom SCF Calculation for Fe : Z (AE atom) =  26 : Z (PS atom) =  16
Config String: 3s2.0 3p6.0 3d6.0 4s2.0 4p0.0
Orbitals (num,occ):  5     2.00 6.00 6.00 2.00 0.00
Orbitals   (num,l):  5        0    1    2    0    1
Real-space Grid (nr,dr,rmax): 1503    0.0066577896   10.0000000000
Spherical Bessel Basis (nsws,lmax,cutoff):   37    4  176.3967570603
Confining potential (l,width,scale):  0    3.0000000000  100.0000000000
Confining potential (l,width,scale):  1    3.0000000000  100.0000000000
Confining potential (l,width,scale):  2    3.0000000000  100.0000000000
  1       -111.4005172118  -52.5575611559   72.2164000725   -4.0901868950
  2       -116.6635475262  -20.5601904919   91.7007084249   -2.2962490369
  3       -121.6156136875  -23.2753453277   92.4544705195   -2.7706732816
  4       -123.0066153699  -21.4164712440   94.7136519632   -2.9394413820
  5       -123.8168122141  -22.6370400734   94.1384349420   -3.0798102909
  6       -123.9055073486  -21.7222843370   94.9342614757   -3.0846520419
  7       -124.0956886241  -22.4138747628   94.4617720360   -3.1224050559
  8       -124.0492758687  -21.8887017510   94.8692044073   -3.1096545890
  9       -124.1222324005  -22.2877514631   94.5777385101   -3.1254730624
 10       -124.0894611846  -22.0431086758   94.7620026738   -3.1177312036
 11       -124.1066906466  -22.1417456915   94.6895757605   -3.1215019185
 12       -124.1027421480  -22.1090398813   94.7144439268   -3.1205307857
 13       -124.1039552528  -22.1131641559   94.7116547863   -3.1207645739
 14       -124.1041718268  -22.1127261003   94.7121170471   -3.1207931979
 15       -124.1043563153  -22.1126782042   94.7122440208   -3.1208211382
 16       -124.1044853288  -22.1126702816   94.7123114748   -3.1208409484
 17       -124.1045734258  -22.1126674103   94.7123551926   -3.1208545095
 18       -124.1046334193  -22.1126657134   94.7123845864   -3.1208637603
 19       -124.1046742816  -22.1126645462   94.7124045128   -3.1208700757
 20       -124.1047021281  -22.1126636961   94.7124180731   -3.1208743926
 21       -124.1047211147  -22.1126630559   94.7124273290   -3.1208773473
 22       -124.1047340666  -22.1126625637   94.7124336643   -3.1208793718
 23       -124.1047429056  -22.1126621807   94.7124380116   -3.1208807606
 24       -124.1047489402  -22.1126618812   94.7124410017   -3.1208817142
 25       -124.1047530616  -22.1126616468   94.7124430628   -3.1208823696
 26       -124.1047558771  -22.1126614637   94.7124444863   -3.1208828204
 27       -124.1047578011  -22.1126613212   94.7124454714   -3.1208831306
 28       -124.1047591161  -22.1126612109   94.7124461541   -3.1208833444
 29       -124.1047600152  -22.1126611259   94.7124466281   -3.1208834917
 30       -124.1047606300  -22.1126610607   94.7124469575   -3.1208835933
 31       -124.1047610504  -22.1126610110   94.7124471869   -3.1208836634
 32       -124.1047613380  -22.1126609733   94.7124473467   -3.1208837118
 33       -124.1047615347  -22.1126609447   94.7124474583   -3.1208837453
 34       -124.1047616693  -22.1126609232   94.7124475361   -3.1208837684
 35       -124.1047617614  -22.1126609071   94.7124475906   -3.1208837843
Atom SCF converged after  35 iterations to a total energy of   -124.10476176

Atom SCF Calculation for H  : Z (AE atom) =   1 : Z (PS atom) =   1
Config String: 1s1.0
Orbitals (num,occ):  1     1.00
Orbitals   (num,l):  1        0
Real-space Grid (nr,dr,rmax): 1503    0.0066577896   10.0000000000
Spherical Bessel Basis (nsws,lmax,cutoff):   37    2  176.3967570603
Confining potential (l,width,scale):  0    3.0000000000  100.0000000000
  1         -0.3348525927   -0.2401819449    0.2820953128   -0.2388448411
  2         -0.4038948821   -0.2405504229    0.2866889240   -0.2416217444
  3         -0.4360732773   -0.2390089543    0.2890729861   -0.2443653791
  4         -0.4497314704   -0.2383264046    0.2899315599   -0.2456060208
  5         -0.4551901081   -0.2381357631    0.2901452306   -0.2460489407
  6         -0.4573594294   -0.2381000300    0.2901742710   -0.2461947705
  7         -0.4582326910   -0.2381004501    0.2901659451   -0.2462415077
  8         -0.4585900702   -0.2381055523    0.2901559649   -0.2462564278
  9         -0.4587384807   -0.2381092319    0.2901497571   -0.2462612174
 10         -0.4588008132   -0.2381112609    0.2901465144   -0.2462627659
 11         -0.4588272086   -0.2381122698    0.2901449456   -0.2462632682
 12         -0.4588384507   -0.2381127465    0.2901442163   -0.2462634302
 13         -0.4588432580   -0.2381129655    0.2901438848   -0.2462634814
 14         -0.4588453195   -0.2381130645    0.2901437362   -0.2462634968
 15         -0.4588462053   -0.2381131088    0.2901436700   -0.2462635011
 16         -0.4588465865   -0.2381131284    0.2901436407   -0.2462635020
 17         -0.4588467508   -0.2381131372    0.2901436278   -0.2462635020
 18         -0.4588468216   -0.2381131410    0.2901436222   -0.2462635019
Atom SCF converged after  18 iterations to a total energy of     -0.45884682

Atom SCF Calculation for O  : Z (AE atom) =   8 : Z (PS atom) =   6
Config String: 2s2.0 2p4.0
Orbitals (num,occ):  2     2.00 4.00
Orbitals   (num,l):  2        0    1
Real-space Grid (nr,dr,rmax): 1503    0.0066577896   10.0000000000
Spherical Bessel Basis (nsws,lmax,cutoff):   37    2  176.3967570603
Confining potential (l,width,scale):  0    3.0000000000  100.0000000000
Confining potential (l,width,scale):  1    3.0000000000  100.0000000000
  1         -8.3209332552   -7.4828484739   10.1554312602   -2.1270270195
  2        -15.1405599232   -3.0474882742   13.6590820486   -2.5134754209
  3        -15.5174094640   -3.1101891961   13.6243211040   -2.6472956001
  4        -15.7606118231   -3.0805775314   13.6668776248   -2.7100307789
  5        -15.8308896490   -3.0881936416   13.6633910567   -2.7338682066
  6        -15.8678540393   -3.0862312957   13.6673103078   -2.7443897972
  7        -15.8801393942   -3.0873360689   13.6669183555   -2.7485230919
  8        -15.8859601688   -3.0872977830   13.6672813272   -2.7502957173
  9        -15.8880580832   -3.0874730763   13.6672320183   -2.7510066526
 10        -15.8889924584   -3.0874981416   13.6672623218   -2.7513066537
 11        -15.8893459980   -3.0875277929   13.6672548500   -2.7514284384
 12        -15.8894977936   -3.0875355600   13.6672566096   -2.7514793465
 13        -15.8895569380   -3.0875407304   13.6672553199   -2.7515001537
 14        -15.8895817884   -3.0875424467   13.6672552475   -2.7515088021
 15        -15.8895916441   -3.0875433561   13.6672550136   -2.7515123499
 16        -15.8895957327   -3.0875436929   13.6672549605   -2.7515138192
 17        -15.8895973717   -3.0875438525   13.6672549179   -2.7515144231
 18        -15.8895980466   -3.0875439149   13.6672549044   -2.7515146726
 19        -15.8895983189   -3.0875439428   13.6672548968   -2.7515147752
 20        -15.8895984306   -3.0875439540   13.6672548940   -2.7515148175
 21        -15.8895984758   -3.0875439588   13.6672548927   -2.7515148349
Atom SCF converged after  21 iterations to a total energy of    -15.88959848

Atom SCF Calculation for Fe : Z (AE atom) =  26 : Z (PS atom) =  16
Config String: 3s2.0 3p6.0 3d6.0 4s2.0 4p0.0
Orbitals (num,occ):  5     2.00 6.00 6.00 2.00 0.00
Orbitals   (num,l):  5        0    1    2    0    1
Real-space Grid (nr,dr,rmax): 1503    0.0066577896   10.0000000000
Spherical Bessel Basis (nsws,lmax,cutoff):   37    4  176.3967570603
Confining potential (l,width,scale):  0    3.0000000000  100.0000000000
Confining potential (l,width,scale):  1    3.0000000000  100.0000000000
Confining potential (l,width,scale):  2    3.0000000000  100.0000000000
  1       -111.4005172118  -52.5575611559   72.2164000725   -4.0901868950
  2       -116.6635475262  -20.5601904919   91.7007084249   -2.2962490369
  3       -121.6156136875  -23.2753453277   92.4544705195   -2.7706732816
  4       -123.0066153699  -21.4164712440   94.7136519632   -2.9394413820
  5       -123.8168122141  -22.6370400734   94.1384349420   -3.0798102909
  6       -123.9055073486  -21.7222843370   94.9342614757   -3.0846520419
  7       -124.0956886241  -22.4138747628   94.4617720360   -3.1224050559
  8       -124.0492758687  -21.8887017510   94.8692044073   -3.1096545890
  9       -124.1222324005  -22.2877514631   94.5777385101   -3.1254730624
 10       -124.0894611846  -22.0431086758   94.7620026738   -3.1177312036
 11       -124.1066906466  -22.1417456915   94.6895757605   -3.1215019185
 12       -124.1027421480  -22.1090398813   94.7144439268   -3.1205307857
 13       -124.1039552528  -22.1131641559   94.7116547863   -3.1207645739
 14       -124.1041718268  -22.1127261003   94.7121170471   -3.1207931979
 15       -124.1043563153  -22.1126782042   94.7122440208   -3.1208211382
 16       -124.1044853288  -22.1126702816   94.7123114748   -3.1208409484
 17       -124.1045734258  -22.1126674103   94.7123551926   -3.1208545095
 18       -124.1046334193  -22.1126657134   94.7123845864   -3.1208637603
 19       -124.1046742816  -22.1126645462   94.7124045128   -3.1208700757
 20       -124.1047021281  -22.1126636961   94.7124180731   -3.1208743926
 21       -124.1047211147  -22.1126630559   94.7124273290   -3.1208773473
 22       -124.1047340666  -22.1126625637   94.7124336643   -3.1208793718
 23       -124.1047429056  -22.1126621807   94.7124380116   -3.1208807606
 24       -124.1047489402  -22.1126618812   94.7124410017   -3.1208817142
 25       -124.1047530616  -22.1126616468   94.7124430628   -3.1208823696
 26       -124.1047558771  -22.1126614637   94.7124444863   -3.1208828204
 27       -124.1047578011  -22.1126613212   94.7124454714   -3.1208831306
 28       -124.1047591161  -22.1126612109   94.7124461541   -3.1208833444
 29       -124.1047600152  -22.1126611259   94.7124466281   -3.1208834917
 30       -124.1047606300  -22.1126610607   94.7124469575   -3.1208835933
 31       -124.1047610504  -22.1126610110   94.7124471869   -3.1208836634
 32       -124.1047613380  -22.1126609733   94.7124473467   -3.1208837118
 33       -124.1047615347  -22.1126609447   94.7124474583   -3.1208837453
 34       -124.1047616693  -22.1126609232   94.7124475361   -3.1208837684
 35       -124.1047617614  -22.1126609071   94.7124475906   -3.1208837843
Atom SCF converged after  35 iterations to a total energy of   -124.10476176

Atom SCF Calculation for H  : Z (AE atom) =   1 : Z (PS atom) =   1
Config String: 1s1.0
Orbitals (num,occ):  1     1.00
Orbitals   (num,l):  1        0
Real-space Grid (nr,dr,rmax): 1503    0.0066577896   10.0000000000
Spherical Bessel Basis (nsws,lmax,cutoff):   37    2  176.3967570603
Confining potential (l,width,scale):  0    3.0000000000  100.0000000000
  1         -0.3348525927   -0.2401819449    0.2820953128   -0.2388448411
  2         -0.4038948821   -0.2405504229    0.2866889240   -0.2416217444
  3         -0.4360732773   -0.2390089543    0.2890729861   -0.2443653791
  4         -0.4497314704   -0.2383264046    0.2899315599   -0.2456060208
  5         -0.4551901081   -0.2381357631    0.2901452306   -0.2460489407
  6         -0.4573594294   -0.2381000300    0.2901742710   -0.2461947705
  7         -0.4582326910   -0.2381004501    0.2901659451   -0.2462415077
  8         -0.4585900702   -0.2381055523    0.2901559649   -0.2462564278
  9         -0.4587384807   -0.2381092319    0.2901497571   -0.2462612174
 10         -0.4588008132   -0.2381112609    0.2901465144   -0.2462627659
 11         -0.4588272086   -0.2381122698    0.2901449456   -0.2462632682
 12         -0.4588384507   -0.2381127465    0.2901442163   -0.2462634302
 13         -0.4588432580   -0.2381129655    0.2901438848   -0.2462634814
 14         -0.4588453195   -0.2381130645    0.2901437362   -0.2462634968
 15         -0.4588462053   -0.2381131088    0.2901436700   -0.2462635011
 16         -0.4588465865   -0.2381131284    0.2901436407   -0.2462635020
 17         -0.4588467508   -0.2381131372    0.2901436278   -0.2462635020
 18         -0.4588468216   -0.2381131410    0.2901436222   -0.2462635019
Atom SCF converged after  18 iterations to a total energy of     -0.45884682

Atom SCF Calculation for O  : Z (AE atom) =   8 : Z (PS atom) =   6
Config String: 2s2.0 2p4.0
Orbitals (num,occ):  2     2.00 4.00
Orbitals   (num,l):  2        0    1
Real-space Grid (nr,dr,rmax): 1503    0.0066577896   10.0000000000
Spherical Bessel Basis (nsws,lmax,cutoff):   37    2  176.3967570603
Confining potential (l,width,scale):  0    3.0000000000  100.0000000000
Confining potential (l,width,scale):  1    3.0000000000  100.0000000000
  1         -8.3209332552   -7.4828484739   10.1554312602   -2.1270270195
  2        -15.1405599232   -3.0474882742   13.6590820486   -2.5134754209
  3        -15.5174094640   -3.1101891961   13.6243211040   -2.6472956001
  4        -15.7606118231   -3.0805775314   13.6668776248   -2.7100307789
  5        -15.8308896490   -3.0881936416   13.6633910567   -2.7338682066
  6        -15.8678540393   -3.0862312957   13.6673103078   -2.7443897972
  7        -15.8801393942   -3.0873360689   13.6669183555   -2.7485230919
  8        -15.8859601688   -3.0872977830   13.6672813272   -2.7502957173
  9        -15.8880580832   -3.0874730763   13.6672320183   -2.7510066526
 10        -15.8889924584   -3.0874981416   13.6672623218   -2.7513066537
 11        -15.8893459980   -3.0875277929   13.6672548500   -2.7514284384
 12        -15.8894977936   -3.0875355600   13.6672566096   -2.7514793465
 13        -15.8895569380   -3.0875407304   13.6672553199   -2.7515001537
 14        -15.8895817884   -3.0875424467   13.6672552475   -2.7515088021
 15        -15.8895916441   -3.0875433561   13.6672550136   -2.7515123499
 16        -15.8895957327   -3.0875436929   13.6672549605   -2.7515138192
 17        -15.8895973717   -3.0875438525   13.6672549179   -2.7515144231
 18        -15.8895980466   -3.0875439149   13.6672549044   -2.7515146726
 19        -15.8895983189   -3.0875439428   13.6672548968   -2.7515147752
 20        -15.8895984306   -3.0875439540   13.6672548940   -2.7515148175
 21        -15.8895984758   -3.0875439588   13.6672548927   -2.7515148349
Atom SCF converged after  21 iterations to a total energy of    -15.88959848

BC: Task: SINGLEPOINT
BC: +++++++++++++++ Summary of boundary conditions ++++++++++++++
BC: |       Component       |     Keyword     |   Periodicity   |
BC: |                       |                 |     X  Y  Z [1] |
BC: |-----------------------------------------------------------|
BC: | Ion-ion               | ion_ion_bc [2]  |     P  P  P     |
BC: | Local pseudopotential | pspot_bc [3]    |     P  P  P     |
BC: +++++++++++++++++++++++++++++++++++++++++++++++++++++++++++++
BC: P: Periodic, O: Open.
BC: [1] Not strictly along X, Y, Z but rather along lattice vectors A1, A2, A3.
BC: [2] Also affected by: pbc_correction_cutoff, cutoff_coulomb_type,
BC:     is_smeared_ion_rep, is_implicit_solvent, openbc_ion_ion.
BC: [3] Also affected by: is_smeared_ion_rep, is_implicit_solvent, openbc_pspot.

Determining parallel strategy ...
... using space-filling curve
... NGWF load balancing: max     13;  min      6;  average      8
... Projector load balancing: max     23;  min     18;  average     21
... Hubbard Projector load balancing: max      5;  min      0;  average      1
... done
Calculating Ewald energy ...
              Ewald: real-space energy =          259.628137
        Ewald: reciprocal-space energy =           32.055934
         Ewald: (sum_charge)**2 energy =           16.660578
         Ewald: (sum_charge**2) energy =           17.162568
                          Ewald energy =          257.860925
Basis initialisation ...
... NGWF spheres initialised
... Projector spheres initialised
... Hubbard Projector spheres initialised
... NGWF tight boxes initialised
... Projector tight boxes initialised
... Tight-boxes gathered
... NGWF basis size (local,global):        108823       418827
... PAW projector initialisation
... done

============================= Charge Augmentation ==============================
                           Aug box size:   35 x  35 x  35
================================================================================
... Hubbard projector initialisation

========================== Sparse matrix information ===========================
                        Overlap matrix filling: 100.00%
                        Density kernel filling: 100.00% (known to be dense)
              NGWF-Proj overlap matrix filling: 100.00%
                    Aug Overlap matrix filling: 100.00%
      NGWF-Hubbard Proj overlap matrix filling: 100.00%
                             VW matrix filling: 100.00%
                    Hamiltonian matrix filling: 100.00%
                  NGWF diagonal matrix filling:  11.54%
                             KS matrix filling: 100.00% 
                           KSKS matrix filling: 100.00% 
================================================================================

Sparse matrix initialisation ...
 done
NGWF initialisation ... done
============ Calculation of NGWF S^-1 using Hotelling algorithm ================ 
     Iteration  |  Spin  |  Frobenius norm and Maximum abs value (of I-S*S_n^-1)
         1           1      0.67929082E+01     0.97887379E+00
         1           2      0.67929082E+01     0.97887379E+00
         2           1      0.66125599E+01     0.95821068E+00
         2           2      0.66125599E+01     0.95821068E+00
         3           1      0.63112652E+01     0.91822820E+00
         3           2      0.63112652E+01     0.91822820E+00
         4           1      0.58572169E+01     0.84334238E+00
         4           2      0.58572169E+01     0.84334238E+00
         5           1      0.52353975E+01     0.71179717E+00
         5           2      0.52353975E+01     0.71179717E+00
         6           1      0.44792031E+01     0.64186715E+00
         6           2      0.44792031E+01     0.64186715E+00
         7           1      0.37487175E+01     0.58815717E+00
         7           2      0.37487175E+01     0.58815717E+00
         8           1      0.31436456E+01     0.52993175E+00
         8           2      0.31436456E+01     0.52993175E+00
         9           1      0.24895651E+01     0.45168604E+00
         9           2      0.24895651E+01     0.45168604E+00
        10           1      0.16912875E+01     0.34234515E+00
        10           2      0.16912875E+01     0.34234515E+00
        11           1      0.90771347E+00     0.21061481E+00
        11           2      0.90771347E+00     0.21061481E+00
        12           1      0.33277018E+00     0.86298535E-01
        12           2      0.33277018E+00     0.86298535E-01
        13           1      0.54347222E-01     0.14983737E-01
        13           2      0.54347222E-01     0.14983737E-01
        14           1      0.15602979E-02     0.45347610E-03
        14           2      0.15602979E-02     0.45347610E-03
        15           1      0.13617747E-05     0.41601780E-06
        15           2      0.13617747E-05     0.41601780E-06
        16           1      0.10844191E-11     0.35216274E-12
        16           2      0.10844191E-11     0.35216274E-12
================================================================================
 done

################################################################################
DFT+U information on atom      1 of Hubbard species Fe  
################################################################################
Using the on-atom contravariant metric, the NGWF hydrogenic character
| < \phi | \psi > |**2 matrix of Hubbard site      1 is 
  m_l =   -2          -1           0           1           2         SUM
  0.00000000 -0.00000000 -0.00000000  0.00000000  0.00000000 -0.00000000
  0.00000000  0.00000000 -0.00000000 -0.00000000 -0.00000001 -0.00000001
 -0.00000000  0.00000000 -0.00000000  0.00000000 -0.00000000 -0.00000000
  0.00000000 -0.00000000 -0.00000000  0.00000000 -0.00000000 -0.00000000
  0.51022594  0.00000000  0.00000000  0.00000000 -0.00000000  0.51022594
  0.00000000  0.51030030  0.00000000 -0.00000000  0.00000000  0.51030030
  0.00000000  0.00000000  0.51329512 -0.00000000 -0.00000000  0.51329512
  0.00000000 -0.00000000 -0.00000000  0.51032094  0.00000000  0.51032094
 -0.00000000  0.00000000 -0.00000000  0.00000000  0.51322847  0.51322847
 -0.00000000  0.00000000 -0.00000000  0.00000000  0.00000000 -0.00000000
  0.00000000  0.00000000 -0.00000000 -0.00000000 -0.00000000 -0.00000000
 -0.00000000  0.00000000 -0.00000000  0.00000000  0.00000000  0.00000000
  0.00000000 -0.00000000 -0.00000000  0.00000000 -0.00000000 -0.00000000
Total hydrogenic projection of NGWFs on this atom             2.55737076
################################################################################


################################################################################
Using the subspace contravariant metric, the NGWF hydrogenic character
| < \phi | \psi > |**2 matrix of Hubbard site      1 is 
  m_l =   -2          -1           0           1           2         SUM
  0.51022594  0.00000000  0.00000000  0.00000000 -0.00000000  0.51022594
  0.00000000  0.51030030  0.00000000 -0.00000000  0.00000000  0.51030030
  0.00000000  0.00000000  0.51329507 -0.00000000 -0.00000000  0.51329507
  0.00000000 -0.00000000 -0.00000000  0.51032094  0.00000000  0.51032094
 -0.00000000  0.00000000 -0.00000000  0.00000000  0.51322831  0.51322831
Total hydrogenic projection of NGWFs on this correlated site  2.55737057
################################################################################

Calculating core density ...
================================= Core Density =================================
               Core den box size:   39 x  39 x  39
================================================================================
 ... done
Density renormalisation, spin  1 ...
Target Charge:    33.000000000000 ; Input Charge:    32.000458888463
Density renormalisation, spin  2 ...
Target Charge:    28.000000000000 ; Input Charge:    32.000458888463
Density kernel initialisation
 
======= Optimisation of K by Palser-Manolopoulos canonical purification ======== 
         Iteration  |  Band structure energy |    c_n   
               1         -41.04682561135849    0.6571267
               2         -41.60746960965155    0.6518290
               3         -42.24741529478443    0.6446424
               4         -42.97614079779736    0.6351812
               5         -43.82130574233649    0.6225089
               6         -44.82161849440529    0.6052610
               7         -45.99649188837360    0.5833749
               8         -47.29441183910695    0.5616934
               9         -48.52550841711169    0.5536053
              10         -49.37313619839203    0.5760820
              11         -49.72002510772391    0.6092270
              12         -49.82258324142690    0.5817611
              13         -49.86477943299480    0.5270337
              14         -49.88064727382515    0.5029897
              15         -49.88257293876451    0.5000382
              16         -49.88259775275331    0.5000304
              17         -49.88259775681976    0.9997231
              18         -49.88259775681977    0.9997231
Termination criterion satisfied: band energy change below threshold.
Final occupancy bounds: [    0.00000000000000:    0.99999999999998]
Closest occupancy to 0.5:     0.99999999999998
================================================================================
 
======= Optimisation of K by Palser-Manolopoulos canonical purification ======== 
         Iteration  |  Band structure energy |    c_n   
               1         -36.42380676599677    0.5536046
               2         -37.42682708809875    0.5459294
               3         -38.55845755687218    0.5366803
               4         -39.78819417065770    0.5300443
               5         -41.16075589351217    0.5313831
               6         -42.60639297575661    0.5584132
               7         -43.76051675418688    0.6416468
               8         -44.29514718750695    0.7281991
               9         -44.42813555403384    0.7440118
              10         -44.48165370704891    0.7284836
              11         -44.53292107196728    0.7014688
              12         -44.58965702969869    0.6619468
              13         -44.65065932754786    0.6037171
              14         -44.71123238148307    0.5190764
              15         -44.76084209186025    0.4105838
              16         -44.77696186944520    0.3535591
              17         -44.78426824851712    0.2762317
              18         -44.78798016788362    0.1928785
              19         -44.78863591885363    0.1764458
              20         -44.78872503236011    0.1793390
              21         -44.78881339717351    0.1837204
              22         -44.78891326824963    0.1895216
              23         -44.78902486012272    0.1971214
              24         -44.78914761255388    0.2069300
              25         -44.78927980148281    0.2193266
              26         -44.78941812403793    0.2345410
              27         -44.78955743383607    0.2524786
              28         -44.78969095759081    0.2725492
              29         -44.78981141903488    0.2936859
              30         -44.78991321279545    0.3148186
              31         -44.78999480785563    0.3358302
              32         -44.79005953957206    0.3583996
              33         -44.79011362889180    0.3857525
              34         -44.79016257100036    0.4204496
              35         -44.79020790437251    0.4593427
              36         -44.79024565608574    0.4891013
              37         -44.79026874676183    0.4992341
              38         -44.79027593115905    0.4999964
              39         -44.79027650271946    0.5000000
              40         -44.79027650603607    0.5005644
              41         -44.79027650603616    0.5005644
Termination criterion satisfied: band energy change below threshold.
Final occupancy bounds: [    0.00000000000000:    0.99999999999988]
Closest occupancy to 0.5:     0.99999999999996
================================================================================

Writing density kernel to file "Fe_H2O_6_HighSpin_NGWFSP.dkn" ... done

>>> Optimising kernel for current NGWFs:
   Initial electron number for spin 1:      33.00000000
   Initial electron number for spin 2:      28.00000000
     Final electron number for spin 1:      33.00000000
     Final electron number for spin 2:      28.00000000

=================== Penalty functional idempotency correction ==================
 RMS occupancy error at iteration   1:  0.000000 (step -0.5000 Ne1=     33.0000)
                                                               Ne2=     28.0000
            Final RMS occupancy error   :  0.000000 (Ne1=     33.0000)
                                                     Ne2=     28.0000
            Final occupancy bounds spin 1: [  0.000,  1.000]
            Final occupancy bounds spin 2: [  0.000,  1.000]
================================================================================

................................................................................
<<<<<<<<<<<<<< LNV (Original version) density kernel optimisation >>>>>>>>>>>>>>
~~~~~~~~~~~~~~~~~~~~~~~~~~~~~~~~~~~~~~~~~~~~~~~~~~~~~~~~~~~~~~~~~~~~~~~~~~~~~~~~
   iter  |      energy (Eh)       | rms gradient |  commutator  |   dE (Eh)

################################################################################
DFT+U information on atom      1 of Hubbard species Fe  
################################################################################
Occupancy matrix of Hubbard site      1 and spin      1 is 
  m_l =   -2          -1           0           1           2
  0.99983921 -0.00027445 -0.00003040  0.00019760 -0.00018452
 -0.00027445  0.99983341  0.00009222 -0.00003609  0.00024932
 -0.00003038  0.00009216  0.99964459  0.00020883  0.00014237
  0.00019760 -0.00003609  0.00020897  1.00016362  0.00015540
 -0.00018442  0.00024919  0.00014239  0.00015532  0.99980193
WARNING: OCCUPANCY MATRIX of Hubbard site      1 and spin      1 exceeeds 1.
################################################################################
Occupancy matrix of Hubbard site      1 and spin      2 is 
  m_l =   -2          -1           0           1           2
  0.99758570 -0.00143394 -0.00019125  0.00113157 -0.00093883
 -0.00143394  0.99757755  0.00053208 -0.00023429  0.00138623
 -0.00019110  0.00053171  0.99660863  0.00105805  0.00088882
  0.00113157 -0.00023427  0.00105875  0.99938529  0.00083724
 -0.00093830  0.00138547  0.00088893  0.00083677  0.99757188
################################################################################
Total occupancy of Hubbard site      1 is         9.98801182 e
Local magnetic moment of Hubbard site      1 is   0.01055372 mu_B
DFT+U energy of Hubbard site      1 is            0.00087754 Ha
################################################################################

      ideal mu1:      -0.142479153289
      ideal mu2:      -0.067204731674
             Q0:        -220.518214069271
             G0:      -8.756414490141
   RMS gradient:       0.085404759351
    Initial Ne1:      33.00000000
    Initial Ne2:      28.00000000
      Final Ne1:      33.00000000
      Final Ne2:      28.00000000

=================== Penalty functional idempotency correction ==================
 RMS occupancy error at iteration   1:  0.002434 (step -0.4941 Ne1=     33.0000)
                                                               Ne2=     28.0000
 RMS occupancy error at iteration   2:  0.000010 (step -0.5000 Ne1=     33.0000)
                                                               Ne2=     28.0000
            Final RMS occupancy error   :  0.000000 (Ne1=     33.0000)
                                                     Ne2=     28.0000
            Final occupancy bounds spin 1: [  0.000,  1.000]
            Final occupancy bounds spin 2: [  0.000,  1.000]
================================================================================

    1        -2.205182140693E+02     8.5405E-02     4.9741E-02

################################################################################
DFT+U information on atom      1 of Hubbard species Fe  
################################################################################
Occupancy matrix of Hubbard site      1 and spin      1 is 
  m_l =   -2          -1           0           1           2
  0.99969439 -0.00058058 -0.00005422  0.00039755 -0.00036778
 -0.00058058  0.99967207  0.00018574 -0.00006531  0.00050998
 -0.00005419  0.00018562  0.99928505  0.00042715  0.00030827
  0.00039755 -0.00006531  0.00042743  1.00036756  0.00030898
 -0.00036758  0.00050971  0.00030831  0.00030882  0.99962540
WARNING: OCCUPANCY MATRIX of Hubbard site      1 and spin      1 exceeeds 1.
################################################################################
Occupancy matrix of Hubbard site      1 and spin      2 is 
  m_l =   -2          -1           0           1           2
  0.98919468 -0.00599170 -0.00060924  0.00469837 -0.00413056
 -0.00599170  0.98923921  0.00251115 -0.00101567  0.00565240
 -0.00060874  0.00250943  0.98544170  0.00439670  0.00335926
  0.00469839 -0.00101557  0.00439960  0.99674486  0.00361681
 -0.00412826  0.00564931  0.00335970  0.00361482  0.98922547
################################################################################
Total occupancy of Hubbard site      1 is         9.94849038 e
Local magnetic moment of Hubbard site      1 is   0.04879855 mu_B
DFT+U energy of Hubbard site      1 is            0.00372036 Ha
################################################################################

      ideal mu1:      -0.250523336109
      ideal mu2:      -0.188780975024
             Q0:        -221.348091023477
             G0:     -14.172924423995
   RMS gradient:       0.079060363890
    Initial Ne1:      33.00000000
    Initial Ne2:      27.99999999
      Final Ne1:      33.00000000
      Final Ne2:      28.00000000

=================== Penalty functional idempotency correction ==================
 RMS occupancy error at iteration   1:  0.012304 (step -0.4677 Ne1=     33.0000)
                                                               Ne2=     28.0000
 RMS occupancy error at iteration   2:  0.000330 (step -0.5004 Ne1=     33.0000)
                                                               Ne2=     28.0000
 RMS occupancy error at iteration   3:  0.000001 (step -0.5000 Ne1=     33.0000)
                                                               Ne2=     28.0000
            Final RMS occupancy error   :  0.000000 (Ne1=     33.0000)
                                                     Ne2=     28.0000
            Final occupancy bounds spin 1: [  0.000,  1.000]
            Final occupancy bounds spin 2: [  0.000,  1.000]
================================================================================

    2        -2.213480910235E+02     7.9060E-02     4.6687E-02    -8.2988E-01

################################################################################
DFT+U information on atom      1 of Hubbard species Fe  
################################################################################
Occupancy matrix of Hubbard site      1 and spin      1 is 
  m_l =   -2          -1           0           1           2
  0.99804387 -0.00069412 -0.00003123  0.00040030 -0.00035723
 -0.00069413  0.99799160  0.00018663 -0.00003423  0.00055555
 -0.00003121  0.00018652  0.99756815  0.00046886  0.00039696
  0.00040030 -0.00003423  0.00046917  0.99882413  0.00030146
 -0.00035704  0.00055526  0.00039701  0.00030131  0.99800358
################################################################################
Occupancy matrix of Hubbard site      1 and spin      2 is 
  m_l =   -2          -1           0           1           2
  0.95122745 -0.02475506 -0.00205120  0.01947143 -0.01770510
 -0.02475507  0.95170026  0.01124884 -0.00437228  0.02306717
 -0.00204950  0.01124119  0.93664919  0.01814615  0.01294926
  0.01947151 -0.00437186  0.01815814  0.98264557  0.01536052
 -0.01769525  0.02305459  0.01295095  0.01535212  0.95169030
################################################################################
Total occupancy of Hubbard site      1 is         9.76434410 e
Local magnetic moment of Hubbard site      1 is   0.21651856 mu_B
DFT+U energy of Hubbard site      1 is            0.01608400 Ha
################################################################################

      ideal mu1:      -0.464668620490
      ideal mu2:      -0.435249031800
             Q0:        -222.578522090980
             G0:     -15.369691569163
   RMS gradient:       0.073712237243
    Initial Ne1:      33.00000000
    Initial Ne2:      28.00000000
      Final Ne1:      33.00000000
      Final Ne2:      28.00000000

=================== Penalty functional idempotency correction ==================
 RMS occupancy error at iteration   1:  0.034019 (step -0.3990 Ne1=     33.0000)
                                                               Ne2=     28.0000
 RMS occupancy error at iteration   2:  0.002959 (step -0.4992 Ne1=     33.0000)
                                                               Ne2=     28.0000
 RMS occupancy error at iteration   3:  0.000043 (step -0.5002 Ne1=     33.0000)
                                                               Ne2=     28.0000
            Final RMS occupancy error   :  0.000000 (Ne1=     33.0000)
                                                     Ne2=     28.0000
            Final occupancy bounds spin 1: [ -0.000,  1.000]
            Final occupancy bounds spin 2: [ -0.000,  1.000]
================================================================================

    3        -2.225785220910E+02     7.3712E-02     4.4666E-02    -1.2304E+00

################################################################################
DFT+U information on atom      1 of Hubbard species Fe  
################################################################################
Occupancy matrix of Hubbard site      1 and spin      1 is 
  m_l =   -2          -1           0           1           2
  0.99124168  0.00069468  0.00027069 -0.00075322  0.00089416
  0.00069468  0.99108419 -0.00045982  0.00018706 -0.00094735
  0.00027051 -0.00045951  0.99173775 -0.00076243 -0.00027792
 -0.00075322  0.00018705 -0.00076293  0.99029191 -0.00082028
  0.00089368 -0.00094684 -0.00027795 -0.00081984  0.99142804
################################################################################
Occupancy matrix of Hubbard site      1 and spin      2 is 
  m_l =   -2          -1           0           1           2
  0.85219247 -0.07070683 -0.00560398  0.05588503 -0.05120068
 -0.07070687  0.85382279  0.03279550 -0.01274970  0.06572919
 -0.00559933  0.03277320  0.81106734  0.05196334  0.03617624
  0.05588527 -0.01274851  0.05199768  0.94219483  0.04424813
 -0.05117221  0.06569335  0.03618092  0.04422398  0.85361307
################################################################################
Total occupancy of Hubbard site      1 is         9.26867407 e
Local magnetic moment of Hubbard site      1 is   0.64289306 mu_B
DFT+U energy of Hubbard site      1 is            0.04282398 Ha
################################################################################

      ideal mu1:      -0.755103040859
      ideal mu2:      -0.768110325711
             Q0:        -223.625721490733
             G0:     -12.487041128104
   RMS gradient:       0.074409654612
    Initial Ne1:      33.00000008
    Initial Ne2:      28.00000002
      Final Ne1:      33.00000000
      Final Ne2:      28.00000000

=================== Penalty functional idempotency correction ==================
 RMS occupancy error at iteration   1:  0.077449 (step -0.2951 Ne1=     33.0000)
                                                               Ne2=     28.0000
 RMS occupancy error at iteration   2:  0.010915 (step -0.4849 Ne1=     33.0000)
                                                               Ne2=     28.0000
 RMS occupancy error at iteration   3:  0.000365 (step -0.5021 Ne1=     33.0000)
                                                               Ne2=     28.0000
            Final RMS occupancy error   :  0.000001 (Ne1=     33.0000)
                                                     Ne2=     28.0000
            Final occupancy bounds spin 1: [ -0.000,  1.000]
            Final occupancy bounds spin 2: [ -0.000,  1.000]
================================================================================

    4        -2.236257214907E+02     7.4410E-02     4.4800E-02    -1.0472E+00

################################################################################
DFT+U information on atom      1 of Hubbard species Fe  
################################################################################
Occupancy matrix of Hubbard site      1 and spin      1 is 
  m_l =   -2          -1           0           1           2
  0.97304785  0.00571469  0.00134373 -0.00453821  0.00526374
  0.00571473  0.97246715 -0.00279875  0.00066024 -0.00636845
  0.00134283 -0.00279689  0.97689614 -0.00519664 -0.00287757
 -0.00453825  0.00066020 -0.00520008  0.96583744 -0.00488446
  0.00526093 -0.00636503 -0.00287794 -0.00488190  0.97375137
################################################################################
Occupancy matrix of Hubbard site      1 and spin      2 is 
  m_l =   -2          -1           0           1           2
  0.70219573 -0.13368747 -0.01162562  0.10606326 -0.09600469
 -0.13368757  0.70476862  0.06018578 -0.02412141  0.12474028
 -0.01161616  0.06014487  0.62201697  0.09869561  0.06950177
  0.10606370 -0.02411917  0.09876084  0.87202730  0.08285594
 -0.09595132  0.12467228  0.06951078  0.08281076  0.70333434
################################################################################
Total occupancy of Hubbard site      1 is         8.46634292 e
Local magnetic moment of Hubbard site      1 is   1.25765700 mu_B
DFT+U energy of Hubbard site      1 is            0.06960104 Ha
################################################################################

      ideal mu1:      -1.050332570362
      ideal mu2:      -1.086173723440
    5        -2.240558422205E+02     9.2200E-02     5.3390E-02    -4.3012E-01
Finished density kernel iterations (   5)

Writing density kernel to file "Fe_H2O_6_HighSpin_NGWFSP.dkn" ... done


>>> Density kernel optimised for the current NGWF basis:
     ~~~~~~~~~~~~~~~~~~~~~~~~~~~~~~~~~~~~~~~~~~~~~~~~~~~~~~~~~~~
     Total energy                =  -2.24055842220493E+02  Eh
     Estimated bandgap (UP spin) =  -4.4144E-01  Eh
     Estimated bandgap (DN spin) =  -6.5316E-01  Eh
     RMS occupancy error         =   5.6971E-07
     [H,K] commutator            =   5.3390E-02
     UP spin occupancy bounds    = [ -0.000:  1.000]
     DN spin occupancy bounds    = [ -0.000:  1.000]
     ~~~~~~~~~~~~~~~~~~~~~~~~~~~~~~~~~~~~~~~~~~~~~~~~~~~~~~~~~~~




################################################################################
########################### NGWF CG iteration  001 #############################
################################################################################
****** Reciprocal space K.E. preconditioning with k_zero =  3.0000 a0^-1 *******

>>> Checking for convergence of NGWFs:   NOT CONVERGED
  ========================================================================
         NGWF RMS gradient =  1.5419E-03 >  2.0000E-06  | above tolerance
  ========================================================================

>>> Improving NGWFs using line search:
============ Calculation of NGWF S^-1 using Hotelling algorithm ================ 
     Iteration  |  Spin  |  Frobenius norm and Maximum abs value (of I-S*S_n^-1)
         1           1      0.98406398E-01     0.36238686E-01
         1           2      0.10403289E+00     0.35936464E-01
         2           1      0.17723848E-02     0.68005519E-03
         2           2      0.17821092E-02     0.66012655E-03
         3           1      0.92541939E-06     0.39916585E-06
         3           2      0.86383075E-06     0.37898866E-06
         4           1      0.26689730E-12     0.13655743E-12
         4           2      0.23354411E-12     0.12367884E-12
================================================================================

################################################################################
DFT+U information on atom      1 of Hubbard species Fe  
################################################################################
Occupancy matrix of Hubbard site      1 and spin      1 is 
  m_l =   -2          -1           0           1           2
  0.97222838  0.00588317  0.00139680 -0.00464152  0.00543340
  0.00588321  0.97160904 -0.00290265  0.00064499 -0.00658013
  0.00139587 -0.00290072  0.97616702 -0.00536457 -0.00298034
 -0.00464156  0.00064495 -0.00536812  0.96479769 -0.00506524
  0.00543050 -0.00657660 -0.00298072 -0.00506258  0.97291387
################################################################################
Occupancy matrix of Hubbard site      1 and spin      2 is 
  m_l =   -2          -1           0           1           2
  0.69216218 -0.13813441 -0.01194693  0.10968788 -0.09937160
 -0.13813452  0.69488683  0.06238376 -0.02501549  0.12886250
 -0.01193720  0.06234136  0.60947491  0.10200290  0.07160103
  0.10968833 -0.02501318  0.10207031  0.86773012  0.08572235
 -0.09931636  0.12879225  0.07161031  0.08567561  0.69338060
################################################################################
Total occupancy of Hubbard site      1 is         8.41535064 e
Local magnetic moment of Hubbard site      1 is   1.30008134 mu_B
DFT+U energy of Hubbard site      1 is            0.07041233 Ha
################################################################################

============ Calculation of NGWF S^-1 using Hotelling algorithm ================ 
     Iteration  |  Spin  |  Frobenius norm and Maximum abs value (of I-S*S_n^-1)
         1           1      0.85616277E+00     0.29950886E+00
         1           2      0.90810831E+00     0.29740665E+00
         2           1      0.13680683E+00     0.49743472E-01
         2           2      0.13803042E+00     0.48737398E-01
         3           1      0.60290561E-02     0.25971202E-02
         3           2      0.56412455E-02     0.24903579E-02
         4           1      0.15024606E-04     0.76695826E-05
         4           2      0.13256811E-04     0.70413310E-05
         5           1      0.13513472E-09     0.77295725E-10
         5           2      0.11171141E-09     0.65023875E-10
         6           1      0.32876326E-14     0.88817842E-15
         6           2      0.34639652E-14     0.88817842E-15
================================================================================
------------------------------- NGWF line search -------------------------------
RMS gradient                =       0.00154193693501
Trial step length           =               0.122474
Gradient along search dir.  =         -3.76162880646
Functional at step 0        =    -224.05584222049319
Functional at step 1        =    -224.49293556634720
Functional predicted        =    -226.30325702498615
Selected quadratic step     =               1.194916
Conjugate gradients coeff.  =               0.000000
--------------------------- NGWF line search finished --------------------------
                                               
Writing NGWFs to file "Fe_H2O_6_HighSpin_NGWFSP.tightbox_ngwfs".... done

>>> Optimising kernel for current NGWFs:
   Initial electron number for spin 1:      33.47719882
   Initial electron number for spin 2:      28.52227483
     Final electron number for spin 1:      33.00000000
     Final electron number for spin 2:      28.00000000

=================== Penalty functional idempotency correction ==================
 RMS occupancy error at iteration   1:  0.015096 (step -0.4569 Ne1=     33.0000)
                                                               Ne2=     28.0000
 RMS occupancy error at iteration   2:  0.000665 (step -0.5008 Ne1=     33.0000)
                                                               Ne2=     28.0000
 RMS occupancy error at iteration   3:  0.000003 (step -0.5000 Ne1=     33.0000)
                                                               Ne2=     28.0000
            Final RMS occupancy error   :  0.000000 (Ne1=     33.0000)
                                                     Ne2=     28.0000
            Final occupancy bounds spin 1: [  0.000,  1.000]
            Final occupancy bounds spin 2: [  0.000,  1.000]
================================================================================

................................................................................
<<<<<<<<<<<<<< LNV (Original version) density kernel optimisation >>>>>>>>>>>>>>
~~~~~~~~~~~~~~~~~~~~~~~~~~~~~~~~~~~~~~~~~~~~~~~~~~~~~~~~~~~~~~~~~~~~~~~~~~~~~~~~
   iter  |      energy (Eh)       | rms gradient |  commutator  |   dE (Eh)

################################################################################
DFT+U information on atom      1 of Hubbard species Fe  
################################################################################
Occupancy matrix of Hubbard site      1 and spin      1 is 
  m_l =   -2          -1           0           1           2
  0.95765744  0.00607290  0.00180233 -0.00468867  0.00611670
  0.00607295  0.95663544 -0.00337362  0.00034609 -0.00738343
  0.00180111 -0.00337136  0.96149906 -0.00594411 -0.00327119
 -0.00468872  0.00034604 -0.00594805  0.94975466 -0.00600625
  0.00611343 -0.00737945 -0.00327160 -0.00600307  0.95800782
################################################################################
Occupancy matrix of Hubbard site      1 and spin      2 is 
  m_l =   -2          -1           0           1           2
  0.60148523 -0.17551338 -0.01482530  0.14008807 -0.12739343
 -0.17551353  0.60531269  0.08038118 -0.03245303  0.16353101
 -0.01481321  0.08032657  0.49717803  0.12981810  0.08950064
  0.14008863 -0.03245006  0.12990388  0.82508520  0.10953720
 -0.12732266  0.16344187  0.08951221  0.10947754  0.60299369
################################################################################
Total occupancy of Hubbard site      1 is         7.91560928 e
Local magnetic moment of Hubbard site      1 is   1.65149957 mu_B
DFT+U energy of Hubbard site      1 is            0.07664970 Ha
################################################################################

      ideal mu1:      -1.027970698022
      ideal mu2:      -1.071381276789
             Q0:        -226.180833402346
             G0:      -1.349073223533
   RMS gradient:       0.033522521581

################################################################################
DFT+U information on atom      1 of Hubbard species Fe  
################################################################################
Occupancy matrix of Hubbard site      1 and spin      1 is 
  m_l =   -2          -1           0           1           2
  0.96082840  0.00669495  0.00232296 -0.00472035  0.00718841
  0.00669498  0.95921963 -0.00415706 -0.00016107 -0.00873521
  0.00232138 -0.00415428  0.96465729 -0.00688250 -0.00376207
 -0.00472041 -0.00016112 -0.00688705  0.95204343 -0.00737960
  0.00718456 -0.00873051 -0.00376255 -0.00737570  0.96068114
################################################################################
Occupancy matrix of Hubbard site      1 and spin      2 is 
  m_l =   -2          -1           0           1           2
  0.50560212 -0.22285379 -0.01734458  0.17932256 -0.16429879
 -0.22285397  0.51156703  0.10552916 -0.04265417  0.20677963
 -0.01733018  0.10545743  0.37628830  0.16481909  0.11032732
  0.17932323 -0.04265032  0.16492794  0.79125185  0.14060071
 -0.16420752  0.20666686  0.11034150  0.14052417  0.50916471
################################################################################
Total occupancy of Hubbard site      1 is         7.49130392 e
Local magnetic moment of Hubbard site      1 is   2.10355589 mu_B
DFT+U energy of Hubbard site      1 is            0.06581318 Ha
################################################################################

     Trial step:       0.500000000000
             Q1:        -226.326231524348
 Quadratic coef:       0.529138489766
 Linear coef   :      -0.674536611767
           Qmin:        -226.395805309236
Quadratic minimum step length (  0.318695684029) accepted
    Initial Ne1:      33.00000001
    Initial Ne2:      28.00000000
      Final Ne1:      33.00000000
      Final Ne2:      28.00000000

=================== Penalty functional idempotency correction ==================
 RMS occupancy error at iteration   1:  0.005383 (step -0.4813 Ne1=     33.0000)
                                                               Ne2=     28.0000
 RMS occupancy error at iteration   2:  0.000066 (step -0.5001 Ne1=     33.0000)
                                                               Ne2=     28.0000
            Final RMS occupancy error   :  0.000000 (Ne1=     33.0000)
                                                     Ne2=     28.0000
            Final occupancy bounds spin 1: [  0.000,  1.000]
            Final occupancy bounds spin 2: [  0.000,  1.000]
================================================================================

    1        -2.261808334023E+02     3.3523E-02     1.9623E-02

################################################################################
DFT+U information on atom      1 of Hubbard species Fe  
################################################################################
Occupancy matrix of Hubbard site      1 and spin      1 is 
  m_l =   -2          -1           0           1           2
  0.95970718  0.00646388  0.00214235 -0.00470665  0.00681233
  0.00646392  0.95830072 -0.00388146  0.00001903 -0.00825529
  0.00214090 -0.00387886  0.96353153 -0.00654926 -0.00357838
 -0.00470671  0.00001898 -0.00655360  0.95124309 -0.00689897
  0.00680868 -0.00825084 -0.00357884 -0.00689532  0.95973842
################################################################################
Occupancy matrix of Hubbard site      1 and spin      2 is 
  m_l =   -2          -1           0           1           2
  0.53707383 -0.20715587 -0.01619863  0.16644889 -0.15258199
 -0.20715604  0.54257598  0.09793025 -0.03946022  0.19230586
 -0.01618521  0.09786369  0.41681465  0.15321641  0.10278050
  0.16644952 -0.03945665  0.15331761  0.80235872  0.13070323
 -0.15249724  0.19220100  0.10279373  0.13063207  0.54030151
################################################################################
Total occupancy of Hubbard site      1 is         7.63164565 e
Local magnetic moment of Hubbard site      1 is   1.95339625 mu_B
DFT+U energy of Hubbard site      1 is            0.07043159 Ha
################################################################################

      ideal mu1:      -1.018022086007
      ideal mu2:      -1.063671292288
             Q0:        -226.409164949021
             G0:      -0.714113664085
   RMS gradient:       0.023609384481

################################################################################
DFT+U information on atom      1 of Hubbard species Fe  
################################################################################
Occupancy matrix of Hubbard site      1 and spin      1 is 
  m_l =   -2          -1           0           1           2
  0.96635100  0.00632397  0.00236369 -0.00427488  0.00702419
  0.00632399  0.96459128 -0.00414566 -0.00037043 -0.00854541
  0.00236209 -0.00414288  0.96977650 -0.00663488 -0.00360660
 -0.00427494 -0.00037048 -0.00663927  0.95809811 -0.00731209
  0.00702043 -0.00854081 -0.00360705 -0.00730823  0.96597000
################################################################################
Occupancy matrix of Hubbard site      1 and spin      2 is 
  m_l =   -2          -1           0           1           2
  0.45753580 -0.24889384 -0.01944148  0.20061788 -0.18372890
 -0.24889402  0.46439938  0.11808327 -0.04779132  0.23104583
 -0.01942532  0.11800299  0.31310255  0.18410349  0.12309928
  0.20061858 -0.04778697  0.18422500  0.77735041  0.15706237
 -0.18362678  0.23091979  0.12311509  0.15697687  0.46192504
################################################################################
Total occupancy of Hubbard site      1 is         7.29910006 e
Local magnetic moment of Hubbard site      1 is   2.35047370 mu_B
DFT+U energy of Hubbard site      1 is            0.05459329 Ha
################################################################################

     Trial step:       0.399183970137
             Q1:        -226.533594949449
 Quadratic coef:       0.160632727130
 Linear coef   :      -0.285062727558
           Qmin:        -226.535634753921
Quadratic minimum step length (  0.354200770160) accepted
    Initial Ne1:      33.00000004
    Initial Ne2:      27.99999917
      Final Ne1:      33.00000000
      Final Ne2:      28.00000000

=================== Penalty functional idempotency correction ==================
 RMS occupancy error at iteration   1:  0.011408 (step -0.4583 Ne1=     33.0000)
                                                               Ne2=     28.0000
 RMS occupancy error at iteration   2:  0.000325 (step -0.4998 Ne1=     33.0000)
                                                               Ne2=     28.0000
 RMS occupancy error at iteration   3:  0.000001 (step -0.5000 Ne1=     33.0000)
                                                               Ne2=     28.0000
            Final RMS occupancy error   :  0.000000 (Ne1=     33.0000)
                                                     Ne2=     28.0000
            Final occupancy bounds spin 1: [  0.000,  1.000]
            Final occupancy bounds spin 2: [  0.000,  1.000]
================================================================================

    2        -2.264091649490E+02     2.3609E-02     1.3782E-02    -2.2833E-01

################################################################################
DFT+U information on atom      1 of Hubbard species Fe  
################################################################################
Occupancy matrix of Hubbard site      1 and spin      1 is 
  m_l =   -2          -1           0           1           2
  0.96574080  0.00634171  0.00234770 -0.00432668  0.00701743
  0.00634173  0.96401113 -0.00412683 -0.00032989 -0.00852989
  0.00234610 -0.00412407  0.96920733 -0.00663804 -0.00360243
 -0.00432674 -0.00032994 -0.00664244  0.95745549 -0.00728684
  0.00701367 -0.00852530 -0.00360288 -0.00728298  0.96540451
################################################################################
Occupancy matrix of Hubbard site      1 and spin      2 is 
  m_l =   -2          -1           0           1           2
  0.46286134 -0.24577457 -0.01877041  0.19830506 -0.18218152
 -0.24577475  0.46998028  0.11764806 -0.04746802  0.22798246
 -0.01875474  0.11756808  0.32131458  0.18182573  0.12063956
  0.19830576 -0.04746371  0.18194575  0.77891648  0.15569446
 -0.18208028  0.22785808  0.12065504  0.15560971  0.46762943
################################################################################
Total occupancy of Hubbard site      1 is         7.32252137 e
Local magnetic moment of Hubbard site      1 is   2.32111716 mu_B
DFT+U energy of Hubbard site      1 is            0.05598938 Ha
################################################################################

      ideal mu1:      -1.018932455782
      ideal mu2:      -1.065263599561
             Q0:        -226.555792223199
             G0:      -0.342887085931
   RMS gradient:       0.015398407226

################################################################################
DFT+U information on atom      1 of Hubbard species Fe  
################################################################################
Occupancy matrix of Hubbard site      1 and spin      1 is 
  m_l =   -2          -1           0           1           2
  0.97374436  0.00517244  0.00203077 -0.00333944  0.00584063
  0.00517244  0.97215381 -0.00349821 -0.00042642 -0.00713940
  0.00202938 -0.00349586  0.97643377 -0.00542162 -0.00299907
 -0.00333950 -0.00042645 -0.00542522  0.96718833 -0.00609376
  0.00583750 -0.00713556 -0.00299945 -0.00609053  0.97325308
################################################################################
Occupancy matrix of Hubbard site      1 and spin      2 is 
  m_l =   -2          -1           0           1           2
  0.41791816 -0.27290104 -0.02261420  0.21968865 -0.19999683
 -0.27290122  0.42503922  0.12733868 -0.05165220  0.25422919
 -0.02259555  0.12725209  0.25708851  0.20193844  0.13735530
  0.21968932 -0.05164738  0.20207162  0.76898707  0.17113300
 -0.19988554  0.25409045  0.13737297  0.17103981  0.42248436
################################################################################
Total occupancy of Hubbard site      1 is         7.15429065 e
Local magnetic moment of Hubbard site      1 is   2.57125603 mu_B
DFT+U energy of Hubbard site      1 is            0.04130468 Ha
################################################################################

     Trial step:       0.376020304848
             Q1:        -226.612095548088
 Quadratic coef:       0.072629181691
 Linear coef   :      -0.128932506580
           Qmin:        -226.613012994747
Quadratic minimum step length (  0.333758685562) accepted
    Initial Ne1:      33.00000002
    Initial Ne2:      27.99999967
      Final Ne1:      33.00000000
      Final Ne2:      28.00000000

=================== Penalty functional idempotency correction ==================
 RMS occupancy error at iteration   1:  0.009763 (step -0.4588 Ne1=     33.0000)
                                                               Ne2=     28.0000
 RMS occupancy error at iteration   2:  0.000278 (step -0.4999 Ne1=     33.0000)
                                                               Ne2=     28.0000
 RMS occupancy error at iteration   3:  0.000000 (step -0.5000 Ne1=     33.0000)
                                                               Ne2=     28.0000
            Final RMS occupancy error   :  0.000000 (Ne1=     33.0000)
                                                     Ne2=     28.0000
            Final occupancy bounds spin 1: [  0.000,  1.000]
            Final occupancy bounds spin 2: [  0.000,  1.000]
================================================================================

    3        -2.265557922232E+02     1.5398E-02     9.0037E-03    -1.4663E-01

################################################################################
DFT+U information on atom      1 of Hubbard species Fe  
################################################################################
Occupancy matrix of Hubbard site      1 and spin      1 is 
  m_l =   -2          -1           0           1           2
  0.97297929  0.00529947  0.00207106 -0.00344505  0.00597823
  0.00529948  0.97136628 -0.00357407 -0.00042101 -0.00730109
  0.00206965 -0.00357168  0.97574804 -0.00556125 -0.00306512
 -0.00344510 -0.00042105 -0.00556493  0.96623093 -0.00623754
  0.00597502 -0.00729716 -0.00306551 -0.00623424  0.97250006
################################################################################
Occupancy matrix of Hubbard site      1 and spin      2 is 
  m_l =   -2          -1           0           1           2
  0.41973708 -0.27125933 -0.02192825  0.21865598 -0.19973088
 -0.27125950  0.42721897  0.12786116 -0.05172567  0.25244824
 -0.02191008  0.12777421  0.26119081  0.20075375  0.13534188
  0.21865666 -0.05172087  0.20088616  0.76899188  0.17081443
 -0.19961977  0.25231047  0.13535927  0.17072143  0.42476877
################################################################################
Total occupancy of Hubbard site      1 is         7.16073211 e
Local magnetic moment of Hubbard site      1 is   2.55691710 mu_B
DFT+U energy of Hubbard site      1 is            0.04228982 Ha
################################################################################

      ideal mu1:      -1.041592657264
      ideal mu2:      -1.086970108795
             Q0:        -226.622317568203
             G0:      -0.107560309890
   RMS gradient:       0.008533680423

################################################################################
DFT+U information on atom      1 of Hubbard species Fe  
################################################################################
[...]
**********************************************************
TOTAL:             -0.00210022   0.00394140   0.00088815
 
********************* Unconstrained **********************
************ NGWF non self-consistent forces *************
*                                                        *
* Element  Atom         Cartesian components (Eh/a)      *
* ------------------------------------------------------ *
*                       x            y            z      *
*                                                        *
*    Fe      1      0.00006618  -0.00005431   0.00002922 *
*    O       2      0.00049583  -0.00010631   0.00077912 *
*    O       3     -0.00067841  -0.00030446  -0.00064990 *
*    O       4     -0.00028816  -0.00083795   0.00036775 *
*    O       5      0.00026712   0.00079820  -0.00033479 *
*    O       6      0.00077470  -0.00040981  -0.00034492 *
*    O       7     -0.00053455   0.00046236   0.00072013 *
*    H       8      0.00008000   0.00005890  -0.00004654 *
*    H       9     -0.00006774  -0.00006201  -0.00003200 *
*    H      10     -0.00002645   0.00002896   0.00012774 *
*    H      11     -0.00002754   0.00005086  -0.00009145 *
*    H      12     -0.00011748   0.00002043  -0.00000810 *
*    H      13     -0.00000985   0.00009357  -0.00000129 *
*    H      14      0.00007405   0.00005563   0.00002467 *
*    H      15      0.00002667  -0.00008886   0.00001795 *
*    H      16      0.00010566  -0.00006508   0.00002251 *
*    H      17     -0.00006663  -0.00005408   0.00006791 *
*    H      18      0.00003456  -0.00006271   0.00008251 *
*    H      19      0.00001643  -0.00007614  -0.00010941 *
*                                                        *
**********************************************************
TOTAL:              0.00012441  -0.00055279   0.00062111
 
********************* Unconstrained **********************
********************** NLCC forces ***********************
*                                                        *
* Element  Atom         Cartesian components (Eh/a)      *
* ------------------------------------------------------ *
*                       x            y            z      *
*                                                        *
*    Fe      1     -0.00000000   0.00000000  -0.00000000 *
*    O       2     -0.00000046  -0.00000009  -0.00000054 *
*    O       3      0.00000047   0.00000009   0.00000054 *
*    O       4      0.00000022   0.00000069  -0.00000024 *
*    O       5     -0.00000020  -0.00000071   0.00000023 *
*    O       6     -0.00000050   0.00000032   0.00000042 *
*    O       7      0.00000050  -0.00000032  -0.00000042 *
*    H       8      0.00000000   0.00000000   0.00000000 *
*    H       9      0.00000000   0.00000000   0.00000000 *
*    H      10      0.00000000   0.00000000   0.00000000 *
*    H      11      0.00000000   0.00000000   0.00000000 *
*    H      12      0.00000000   0.00000000   0.00000000 *
*    H      13      0.00000000   0.00000000   0.00000000 *
*    H      14      0.00000000   0.00000000   0.00000000 *
*    H      15      0.00000000   0.00000000   0.00000000 *
*    H      16      0.00000000   0.00000000   0.00000000 *
*    H      17      0.00000000   0.00000000   0.00000000 *
*    H      18      0.00000000   0.00000000   0.00000000 *
*    H      19      0.00000000   0.00000000   0.00000000 *
*                                                        *
**********************************************************
TOTAL:              0.00000002  -0.00000001  -0.00000002
 
********************* Unconstrained **********************
********************** DFT+U forces **********************
*                                                        *
* Element  Atom         Cartesian components (Eh/a)      *
* ------------------------------------------------------ *
*                       x            y            z      *
*                                                        *
*    Fe      1     -0.00001085   0.00001915   0.00000200 *
*    O       2      0.00000000   0.00000000   0.00000000 *
*    O       3      0.00000000   0.00000000   0.00000000 *
*    O       4      0.00000000   0.00000000   0.00000000 *
*    O       5      0.00000000   0.00000000   0.00000000 *
*    O       6      0.00000000   0.00000000   0.00000000 *
*    O       7      0.00000000   0.00000000   0.00000000 *
*    H       8      0.00000000   0.00000000   0.00000000 *
*    H       9      0.00000000   0.00000000   0.00000000 *
*    H      10      0.00000000   0.00000000   0.00000000 *
*    H      11      0.00000000   0.00000000   0.00000000 *
*    H      12      0.00000000   0.00000000   0.00000000 *
*    H      13      0.00000000   0.00000000   0.00000000 *
*    H      14      0.00000000   0.00000000   0.00000000 *
*    H      15      0.00000000   0.00000000   0.00000000 *
*    H      16      0.00000000   0.00000000   0.00000000 *
*    H      17      0.00000000   0.00000000   0.00000000 *
*    H      18      0.00000000   0.00000000   0.00000000 *
*    H      19      0.00000000   0.00000000   0.00000000 *
*                                                        *
**********************************************************
TOTAL:             -0.00001085   0.00001915   0.00000200
 
********************* Unconstrained **********************
****** Correction to ensure the total force is zero ******
*                                                        *
* Element  Atom         Cartesian components (Eh/a)      *
* ------------------------------------------------------ *
*                       x            y            z      *
*                                                        *
*    Fe      1      0.00000074  -0.00000293  -0.00000179 *
*    O       2      0.00000074  -0.00000293  -0.00000179 *
*    O       3      0.00000074  -0.00000293  -0.00000179 *
*    O       4      0.00000074  -0.00000293  -0.00000179 *
*    O       5      0.00000074  -0.00000293  -0.00000179 *
*    O       6      0.00000074  -0.00000293  -0.00000179 *
*    O       7      0.00000074  -0.00000293  -0.00000179 *
*    H       8      0.00000074  -0.00000293  -0.00000179 *
*    H       9      0.00000074  -0.00000293  -0.00000179 *
*    H      10      0.00000074  -0.00000293  -0.00000179 *
*    H      11      0.00000074  -0.00000293  -0.00000179 *
*    H      12      0.00000074  -0.00000293  -0.00000179 *
*    H      13      0.00000074  -0.00000293  -0.00000179 *
*    H      14      0.00000074  -0.00000293  -0.00000179 *
*    H      15      0.00000074  -0.00000293  -0.00000179 *
*    H      16      0.00000074  -0.00000293  -0.00000179 *
*    H      17      0.00000074  -0.00000293  -0.00000179 *
*    H      18      0.00000074  -0.00000293  -0.00000179 *
*    H      19      0.00000074  -0.00000293  -0.00000179 *
*                                                        *
**********************************************************
TOTAL:              0.00001405  -0.00005564  -0.00003396

********************* Unconstrained **********************
************************* Forces *************************
*                                                        *
* Element  Atom         Cartesian components (Eh/a)      *
* ------------------------------------------------------ *
*                       x            y            z      *
*                                                        *
*    Fe      1     -0.00000373   0.00006787   0.00002083 *
*    O       2      0.00141775   0.00020700   0.00161386 *
*    O       3     -0.00142748  -0.00027791  -0.00163229 *
*    O       4     -0.00058508  -0.00189380   0.00072820 *
*    O       5      0.00059939   0.00195458  -0.00076433 *
*    O       6      0.00106301  -0.00127004  -0.00078009 *
*    O       7     -0.00108133   0.00128640   0.00082713 *
*    H       8     -0.00105213   0.00883203  -0.00025176 *
*    H       9     -0.00321638   0.00335139  -0.00723893 *
*    H      10     -0.00816481   0.00309478   0.00022979 *
*    H      11     -0.00615251  -0.00475273  -0.00351688 *
*    H      12     -0.00190292   0.00393639   0.00744838 *
*    H      13      0.00552787   0.00390334  -0.00526641 *
*    H      14      0.00323389  -0.00340882   0.00726635 *
*    H      15     -0.00551452  -0.00391904   0.00527283 *
*    H      16      0.00189269  -0.00390477  -0.00747273 *
*    H      17      0.00104921  -0.00886684   0.00021209 *
*    H      18      0.00616525   0.00473733   0.00352048 *
*    H      19      0.00815183  -0.00307716  -0.00021651 *
*                                                        *
**********************************************************
* TOTAL:           -0.00000000  -0.00000000  -0.00000000 *
**********************************************************
 
 
***********************************************************
********** Summary of Forces (values in Eh/a) *************
*                                                         *
* ---------------------- Minimum ------------------------ *
* Atom:         1, |F|min =    0.00007109                 *
* Components:     Fx|min       Fy|min       Fz|min        *
*              -0.00000373   0.00006787   0.00002083      *
*                                                         *
* ---------------------- Maximum ------------------------ *
* Atom:        17, |F|max =    0.00893122                 *
* Components:     Fx|max       Fy|max       Fz|max        *
*               0.00104921  -0.00886684   0.00021209      *
*                                                         *
* ---------------- Root Mean Square Force --------------- *
*                  |F|rms =    0.00698724                 *
* Components:     Fx|rms       Fy|rms       Fz|rms        *
*               0.00402107   0.00407619   0.00400465      *
***********************************************************
 

------------------------------ TIMING INFORMATION ------------------------------
AVERAGE TIME:    1545.789s on      6 proc(s)                                    
TOTAL TIME:      1545.790s on      6 proc(s)                                    
==================== AVERAGE TIMINGS FROM ALL PROCS (CUMULATIVE) =====================
|| TAG                                         #calls     cpu time   %total  Gflops ||
|| hubbard_species_proj                       :     1        0.00s   0.000%  ------ ||
|| hash_table_free                            :    25        0.00s   0.000%  ------ ||
|| hubbard_projector_character                :     1        0.00s   0.000%  ------ ||
|| linalg_invert_sym_matrix                   :     4        0.00s   0.000%  ------ || (1 procs only)
|| hubbard_ngwf_on_grid                       :     1        0.00s   0.000%  ------ ||
|| sparse_spam3toblacs_real_fast_imbal        :     6        0.00s   0.000%  ------ ||
|| hubbard_ngwf_select                        :     1        0.00s   0.000%  ------ ||
|| sparse_spam3toblacs_real_fast_B2           :    36        0.00s   0.000%  ------ ||
|| hubbard_tensorial_correction               :     2        0.00s   0.000%  ------ ||
|| sparse_blacstospam3_real_fast_imbal        :    24        0.00s   0.000%  ------ ||
|| density_fftbox_interp_mult_imbal           :  3458        0.00s   0.000%  ------ ||
|| ewald_calculate_forces_realspace           :     1        0.00s   0.000%  ------ ||
|| sparse_spam3toblacs_real_fast_B1           :    36        0.00s   0.000%  ------ ||
|| linalg_dsyev_lt                            :   129        0.01s   0.000%  ------ || (1 procs only)
|| onetep.F90 final imbalance                 :     1        0.00s   0.000%  ------ ||
|| sparse_spam3toblacs_real_fast              :     6        0.00s   0.000%  ------ ||
|| ewald_calculate_forces_recipspace          :     1        0.00s   0.000%  ------ ||
|| sparse_set_to_garbage                      :   542        0.00s   0.000%  ------ ||
|| ewald_calculate_forces                     :     1        0.00s   0.000%  ------ ||
|| sw_bessel_init_cpu                         :     1        0.02s   0.002%  ------ || (1 procs only)
|| onetep.F90 main loop imbalance             :     1        0.00s   0.000%  ------ ||
|| ewald_calculate_energy                     :     1        0.01s   0.000%  ------ ||
|| sparse_blacstospam3_real_fast              :    24        0.01s   0.000%  ------ ||
|| paw_dij_hartree                            :   144        0.01s   0.001%  ------ ||
|| sparse_init                                :     1        0.01s   0.001%  ------ ||
|| hubbard_projection_mtx                     :    27        0.02s   0.001%  ------ ||
|| linalg_dgemv                               :   104        0.03s   0.002%  ------ ||
|| basis_extract_function_from_box            :   424        0.03s   0.002%  ------ ||
|| restart_kernel_write                       :    14        0.03s   0.002%  ------ ||
|| hubbard_ham_matrix                         :    67        0.04s   0.002%  ------ ||
|| hubbard_projector_ham                      :    66        0.05s   0.003%  ------ ||
|| sparse_embed_array_hotelling_invert        :    25        0.07s   0.004%  ------ ||
|| augmentation_density_forces                :     1        0.07s   0.004%  ------ ||
|| sw_init                                    :   271        0.09s   0.006%  ------ ||
|| palser_mano_kernel_optimise_spam3_embed    :     2        0.09s   0.006%  ------ ||
|| pseudo_make_structure_factor               :     1        0.10s   0.006%  ------ ||
|| dense_eigensolve                           :     2        0.13s   0.009%  ------ ||
|| paw_tcore_density                          :     1        0.13s   0.009%  ------ ||
|| hubbard_energy_total                       :   129        0.21s   0.014%  ------ ||
|| paw_tcore_hartree_on_grid                  :     1        0.27s   0.017%  ------ ||
|| hubbard_calculate_forces                   :     1        0.28s   0.018%  ------ ||
|| lnv_gradient_norm                          :    65        0.29s   0.018%  ------ ||
|| kernel_purify                              :   204        0.38s   0.025%  ------ ||
|| nonsc_forces_ngwfs_calc                    :     1        0.39s   0.025%  ------ ||
|| paw_sphere_density_on_grid                 :     1        0.40s   0.026%  ------ ||
|| paw_tcore_hartree_calc_forces              :     1        0.45s   0.029%  ------ ||
|| kernel_fix                                 :    65        0.58s   0.038%  ------ ||
|| ngwfs_initialise_from_radial               :     4        0.60s   0.039%  ------ ||
|| integrals_grad_spam3                       :     4        0.67s   0.043%  ------ ||
|| sparse_trace                               :  6431        0.80s   0.052%  ------ ||
|| function_ops_brappd_ketppd_spam3           :   104        1.18s   0.076%  ------ ||
|| sparse_product                             : 10188        1.70s   0.110%  ------ ||
|| paw_dataset_init                           :     3        1.83s   0.118%  ------ ||
|| basis_copy_function_to_box                 :  4183        2.06s   0.133%  ------ ||
|| restart_ngwfs_tightbox_output              :    12        2.07s   0.134%  ------ ||
|| ngwf_gradient_coeffs                       :    13        2.36s   0.153%  ------ ||
|| fourier_apply_box_pair                     :   659        2.36s   0.153% 123.325 ||
|| paw_species_calc_proj_prec_mat             :     1        2.38s   0.154%  ------ ||
|| hubbard_projector_update                   :     1        2.43s   0.157%  ------ ||
|| projectors_func_grad_ovlp_box_spam3        :     6        2.90s   0.188%  ------ ||
|| aug_nl_calculate_forces                    :     1        3.09s   0.200%  ------ ||
|| paw_nlcc_calculate_forces                  :     1        3.25s   0.210%  ------ ||
|| cell_grid_extract_box_real                 :  3520        3.45s   0.223%  ------ ||
|| basis_dot_function_with_box                : 129.6k       3.81s   0.247%  ------ ||
|| basis_add_function_to_box                  : 150.2k       4.60s   0.297%  ------ ||
|| eigenstates_calculate                      :     1        5.13s   0.332%  ------ ||
|| integrals_kinetic_spam3                    :    50        5.34s   0.346%  ------ ||
|| density_fftbox_deposit_to_cell             :  3458        6.54s   0.423%  ------ ||
|| density_batch_row_sums                     :   266        6.98s   0.452%  ------ ||
|| augmentation_screen_dij_spam3              :   137        8.72s   0.564%  ------ ||
|| energy_and_force_init_cell                 :     1        9.43s   0.610%  ------ ||
|| cell_grid_deposit_box_real                 :  4862        9.44s   0.611%  ------ ||
|| forces_calculate                           :     1       15.94s   1.031%  ------ ||
|| density_init_guess_real                    :     2       17.46s   1.130%  ------ ||
|| fourier_filter                             :   869       20.84s   1.348%  ------ ||
|| aug_nonlocal_mat_spam3_embed_array         :   130       22.51s   1.456%  ------ ||
|| paw_dij_xc                                 :   144       24.65s   1.594%  ------ ||
|| integrals_locpot_mat_els_batch             :   146       25.16s   1.628%  ------ ||
|| fourier_interpolate                        :   869       30.80s   1.992%  ------ ||
|| fourier_filter_cell                        :   172       33.04s   2.137%  17.860 ||
|| hamiltonian_energy_components              :     3       34.38s   2.224%  ------ ||
|| aug_density_on_grid_spam3                  :   133       35.37s   2.288%  ------ ||
|| hartree_on_grid_single                     :   132       43.89s   2.839%  ------ ||
|| projectors_init_fftbox_recip               :   191       44.41s   2.873%  ------ ||
|| projectors_func_ovlp_box_spam3             :   106       44.41s   2.873%  ------ ||
|| fourier_interpolate_cell                   :   266       50.60s   3.273%  18.035 ||
|| fourier_interpolate_product                :  2172       66.79s   4.320%  ------ ||
|| projectors_grad_precond_batch              :    26       71.92s   4.652%  ------ ||
|| density_fftbox_interpolate_multiply        :  3458       72.36s   4.681%  ------ ||
|| fourier_apply_box                          : 16144       90.90s   5.881% 214.959 ||
|| properties_calculate                       :     1      102.27s   6.616%  ------ ||
|| potential_apply_to_ngwf_batch              :   146      103.56s   6.699%  ------ ||
|| integrals_locpot_dbl_grid                  :   146      128.77s   8.331%  ------ ||
|| projectors_gradient_batch                  :    52      129.95s   8.407%  ------ ||
|| density_batch_interp_deposit               :   266      164.43s  10.637%  ------ ||
|| density_on_dbl_grid                        :   266      175.52s  11.355%  ------ ||
|| fourier_apply_cell_forward                 :  1189      183.93s  11.899%  19.966 ||
|| fourier_apply_cell_backward                :  1189      190.44s  12.320%  19.284 ||
|| ngwf_gradient_build_batch                  :    26      262.70s  16.994%  ------ ||
|| ngwf_gradient_batch                        :    26      302.33s  19.558%  ------ ||
|| ngwf_gradient_lnv                          :    13      311.72s  20.166%  ------ ||
|| xc_energy_potential                        :   132      421.26s  27.252%  ------ ||
|| hamiltonian_lhxc_calculate                 :   127      802.42s  51.910%  ------ ||
|| lnv_denskernel_optimise_cg                 :    13      881.22s  57.008%  ------ ||
|| ngwf_cg_optimise                           :     1     1384.22s  89.548%  ------ ||
|| energy_and_forces                          :     1     1535.73s  99.349%  ------ ||
|| total_time                                 :     1     1545.79s 100.000%  ------ ||
======================================================================================
Overhead of generating timer report: 
- 0 ms averaging over threads,
- 0 ms ensuring consistency across MPI ranks,
- 1 ms printing in order.

Job completed: 28-06-2025 12:37 (+0100)

onetep_launcher: ONETEP seems to have finished correctly (zero exit code).
                 Brought to you by PID 219004 on nid002975.
