
                                 *****************
                                 * O   R   C   A *
                                 *****************

                                            #,                                       
                                            ###                                      
                                            ####                                     
                                            #####                                    
                                            ######                                   
                                           ########,                                 
                                     ,,################,,,,,                         
                               ,,#################################,,                 
                          ,,##########################################,,             
                       ,#########################################, ''#####,          
                    ,#############################################,,   '####,        
                  ,##################################################,,,,####,       
                ,###########''''           ''''###############################       
              ,#####''   ,,,,##########,,,,          '''####'''          '####       
            ,##' ,,,,###########################,,,                        '##       
           ' ,,###''''                  '''############,,,                           
         ,,##''                                '''############,,,,        ,,,,,,###''
      ,#''                                            '''#######################'''  
     '                                                          ''''####''''         
             ,#######,   #######,   ,#######,      ##                                
            ,#'     '#,  ##    ##  ,#'     '#,    #''#        ######   ,####,        
            ##       ##  ##   ,#'  ##            #'  '#       #        #'  '#        
            ##       ##  #######   ##           ,######,      #####,   #    #        
            '#,     ,#'  ##    ##  '#,     ,#' ,#      #,         ##   #,  ,#        
             '#######'   ##     ##  '#######'  #'      '#     #####' # '####'        



                  #######################################################
                  #                        -***-                        #
                  #          Department of theory and spectroscopy      #
                  #    Directorship and core code : Frank Neese         #
                  #        Max Planck Institute fuer Kohlenforschung    #
                  #                Kaiser Wilhelm Platz 1               #
                  #                 D-45470 Muelheim/Ruhr               #
                  #                      Germany                        #
                  #                                                     #
                  #                  All rights reserved                #
                  #                        -***-                        #
                  #######################################################


                         Program Version 5.0.3 -  RELEASE  -


 With contributions from (in alphabetic order):
   Daniel Aravena         : Magnetic Suceptibility
   Michael Atanasov       : Ab Initio Ligand Field Theory (pilot matlab implementation)
   Alexander A. Auer      : GIAO ZORA, VPT2 properties, NMR spectrum
   Ute Becker             : Parallelization
   Giovanni Bistoni       : ED, misc. LED, open-shell LED, HFLD
   Martin Brehm           : Molecular dynamics
   Dmytro Bykov           : SCF Hessian
   Vijay G. Chilkuri      : MRCI spin determinant printing, contributions to CSF-ICE
   Dipayan Datta          : RHF DLPNO-CCSD density
   Achintya Kumar Dutta   : EOM-CC, STEOM-CC
   Dmitry Ganyushin       : Spin-Orbit,Spin-Spin,Magnetic field MRCI
   Miquel Garcia          : C-PCM and meta-GGA Hessian, CC/C-PCM, Gaussian charge scheme
   Yang Guo               : DLPNO-NEVPT2, F12-NEVPT2, CIM, IAO-localization
   Andreas Hansen         : Spin unrestricted coupled pair/coupled cluster methods
   Benjamin Helmich-Paris : MC-RPA, TRAH-SCF, COSX integrals
   Lee Huntington         : MR-EOM, pCC
   Robert Izsak           : Overlap fitted RIJCOSX, COSX-SCS-MP3, EOM
   Marcus Kettner         : VPT2
   Christian Kollmar      : KDIIS, OOCD, Brueckner-CCSD(T), CCSD density, CASPT2, CASPT2-K
   Simone Kossmann        : Meta GGA functionals, TD-DFT gradient, OOMP2, MP2 Hessian
   Martin Krupicka        : Initial AUTO-CI
   Lucas Lang             : DCDCAS
   Marvin Lechner         : AUTO-CI (C++ implementation), FIC-MRCC
   Dagmar Lenk            : GEPOL surface, SMD
   Dimitrios Liakos       : Extrapolation schemes; Compound Job, initial MDCI parallelization
   Dimitrios Manganas     : Further ROCIS development; embedding schemes
   Dimitrios Pantazis     : SARC Basis sets
   Anastasios Papadopoulos: AUTO-CI, single reference methods and gradients
   Taras Petrenko         : DFT Hessian,TD-DFT gradient, ASA, ECA, R-Raman, ABS, FL, XAS/XES, NRVS
   Peter Pinski           : DLPNO-MP2, DLPNO-MP2 Gradient
   Christoph Reimann      : Effective Core Potentials
   Marius Retegan         : Local ZFS, SOC
   Christoph Riplinger    : Optimizer, TS searches, QM/MM, DLPNO-CCSD(T), (RO)-DLPNO pert. Triples
   Tobias Risthaus        : Range-separated hybrids, TD-DFT gradient, RPA, STAB
   Michael Roemelt        : Original ROCIS implementation
   Masaaki Saitow         : Open-shell DLPNO-CCSD energy and density
   Barbara Sandhoefer     : DKH picture change effects
   Avijit Sen             : IP-ROCIS
   Kantharuban Sivalingam : CASSCF convergence, NEVPT2, FIC-MRCI
   Bernardo de Souza      : ESD, SOC TD-DFT
   Georgi Stoychev        : AutoAux, RI-MP2 NMR, DLPNO-MP2 response
   Willem Van den Heuvel  : Paramagnetic NMR
   Boris Wezisla          : Elementary symmetry handling
   Frank Wennmohs         : Technical directorship


 We gratefully acknowledge several colleagues who have allowed us to
 interface, adapt or use parts of their codes:
   Stefan Grimme, W. Hujo, H. Kruse, P. Pracht,  : VdW corrections, initial TS optimization,
                  C. Bannwarth, S. Ehlert          DFT functionals, gCP, sTDA/sTD-DF
   Ed Valeev, F. Pavosevic, A. Kumar             : LibInt (2-el integral package), F12 methods
   Garnet Chan, S. Sharma, J. Yang, R. Olivares  : DMRG
   Ulf Ekstrom                                   : XCFun DFT Library
   Mihaly Kallay                                 : mrcc  (arbitrary order and MRCC methods)
   Jiri Pittner, Ondrej Demel                    : Mk-CCSD
   Frank Weinhold                                : gennbo (NPA and NBO analysis)
   Christopher J. Cramer and Donald G. Truhlar   : smd solvation model
   Lars Goerigk                                  : TD-DFT with DH, B97 family of functionals
   V. Asgeirsson, H. Jonsson                     : NEB implementation
   FAccTs GmbH                                   : IRC, NEB, NEB-TS, DLPNO-Multilevel, CI-OPT
                                                   MM, QMMM, 2- and 3-layer-ONIOM, Crystal-QMMM,
                                                   LR-CPCM, SF, NACMEs, symmetry and pop. for TD-DFT,
                                                   nearIR, NL-DFT gradient (VV10), updates on ESD,
                                                   ML-optimized integration grids
   S Lehtola, MJT Oliveira, MAL Marques          : LibXC Library
   Liviu Ungur et al                             : ANISO software


 Your calculation uses the libint2 library for the computation of 2-el integrals
 For citations please refer to: http://libint.valeyev.net

 Your ORCA version has been built with support for libXC version: 5.1.0
 For citations please refer to: https://tddft.org/programs/libxc/

 This ORCA versions uses:
   CBLAS   interface :  Fast vector & matrix operations
   LAPACKE interface :  Fast linear algebra routines
   SCALAPACK package :  Parallel linear algebra routines
   Shared memory     :  Shared parallel matrices
   BLAS/LAPACK       :  OpenBLAS 0.3.15  USE64BITINT DYNAMIC_ARCH NO_AFFINITY Zen SINGLE_THREADED
        Core in use  :  Zen
   Copyright (c) 2011-2014, The OpenBLAS Project


================================================================================

----- Orbital basis set information -----
Your calculation utilizes the basis: def2-TZVP
   F. Weigend and R. Ahlrichs, Phys. Chem. Chem. Phys. 7, 3297 (2005).

----- AuxJ basis set information -----
Your calculation utilizes the auxiliary basis: def2/J
   F. Weigend, Phys. Chem. Chem. Phys. 8, 1057 (2006).

================================================================================
                                        WARNINGS
                       Please study these warnings very carefully!
================================================================================


WARNING: your system is open-shell and RHF/RKS was chosen
  ===> : WILL SWITCH to UHF/UKS


INFO   : the flag for use of the SHARK integral package has been found!

================================================================================
                                       INPUT FILE
================================================================================
NAME = Fe2_tert-butoxide_6_HighSpin.inp
|  1> ! PBE def2-TZVP
|  2> %pal nprocs 32 end
|  3> %maxcore 3000
|  4> 
|  5> * xyz 0 11
|  6>   Fe  9.68933399600220      3.39849518094285      6.87001064205514
|  7>   O   9.73223524423931      1.41414891120639      6.68833216677878
|  8>   O   10.96570824632888      4.22717195490451      5.89655071814027
|  9>   O   8.04919101800948      4.11339538235480      6.70574605478698
| 10>   C   8.99040840350320      0.56783839638236      5.80063007543780
| 11>   C   11.04432257016929      5.26146545779687      4.94476656143090
| 12>   C   6.84418636957156      4.48922475841785      7.32437859257677
| 13>   C   9.70362291968385     -0.77446719624016      5.72505785014614
| 14>   H   10.72289770758931     -0.64810983002896      5.35491143059891
| 15>   H   9.17475311771253     -1.45201915264420      5.05112916064249
| 16>   H   9.74356683569655     -1.24791808107465      6.71001419932176
| 17>   C   7.57753988033599      0.39022045028855      6.33704166195394
| 18>   H   7.60475816617394     -0.01107029989348      7.35210339705502
| 19>   H   7.00882029652575     -0.29280834630610      5.70134341787658
| 20>   H   7.06051462612647      1.35081965453573      6.35611021892883
| 21>   C   8.96643777065167      1.23224810037707      4.43261631869003
| 22>   H   8.45036285760419      2.19497453865234      4.48209439332983
| 23>   H   8.43670099923648      0.60609382487029      3.71104885449213
| 24>   H   9.98283078639083      1.39776451752783      4.06938399419346
| 25>   C   12.47170858145499      5.27514062171004      4.40774640927456
| 26>   H   13.17950782458075      5.45736827059044      5.21926577951253
| 27>   H   12.60182547607366      6.05455042929835      3.65259803969019
| 28>   H   12.71118903714030      4.30991138596865      3.95647676286992
| 29>   C   10.71928113733957      6.59148804109747      5.61874123305251
| 30>   H   9.70574259224073      6.56744150564428      6.02629078079965
| 31>   H   10.78576957930441      7.41991566242545      4.90883235599808
| 32>   H   11.42028710115692      6.78313379845524      6.43464898816582
| 33>   C   10.05788194193539      4.99614478538076      3.81129778028802
| 34>   H   10.28119176480209      4.04066423853628      3.33119770259558
| 35>   H   10.11299459715671      5.78173262404334      3.05342999318343
| 36>   H   9.03704096965580      4.96208795820226      4.19962328024936
| 37>   C   6.62741244279308      3.66844996647830      8.59130950172930
| 38>   H   6.58350755052920      2.60290973827941      8.35791821219701
| 39>   H   5.69422639978378      3.95148135735270      9.08459741096791
| 40>   H   7.44882318863773      3.82445914809806      9.29396088887979
| 41>   C   5.71082904004920      4.24327892441330      6.33229103791011
| 42>   H   5.88488885200913      4.81033550626493      5.41543297273932
| 43>   H   4.75020515694372      4.55004183032144      6.75337588926498
| 44>   H   5.64921186745293      3.18416623742809      6.07399443662822
| 45>   C   6.91698393180644      5.97580963311066      7.66213861443412
| 46>   H   7.73867804579083      6.17077151305027      8.35435059327763
| 47>   H   5.98836491949040      6.31682832127821      8.12674439132750
| 48>   H   7.08353108959429      6.56112815405541      6.75515769879538
| 49>   Fe  10.43410461794353      0.99521983662377      8.48155996969057
| 50>   O   10.39123540493362      2.97956773637437      8.66322655920427
| 51>   O   9.15772245760705      0.16653752785107      9.45500273712099
| 52>   O   12.07424746740905      0.28032761982059      8.64586620082063
| 53>   C   11.13315605355410      3.82585730159574      9.55085858958105
| 54>   C   9.07909794362366     -0.86779791719320     10.40674192937403
| 55>   C   13.27939264741959     -0.09519710254949      8.02732708434303
| 56>   C   10.41998584308267      5.16818347246050      9.62648165076240
| 57>   H   9.40073500308337      5.04185530964774      9.99670734762209
| 58>   H   10.94892660961744      5.84572365748478     10.30036656554594
| 59>   H   10.37997902925302      5.64163160686800      8.64152654148306
| 60>   C   12.54597573701458      4.00341656676235      9.01429816404989
| 61>   H   12.51866474575079      4.40471830701199      7.99924317473171
| 62>   H   13.11479110498043      4.68641558502424      9.64994210166157
| 63>   H   13.06295854229641      3.04279417362123      8.99516263392767
| 64>   C   11.15723483501486      3.16145314593101     10.91887266115783
| 65>   H   11.67328418104538      2.19871515301360     10.86935125251993
| 66>   H   11.68705215490418      3.78759801558019     11.64038918846187
| 67>   H   10.14087166206660      2.99596027352376     11.28219861393613
| 68>   C   7.65171791710271     -0.88146485014045     10.94377745860676
| 69>   H   6.94390535679223     -1.06364212148308     10.13225839949405
| 70>   H   7.52159300995870     -1.66090462739365     11.69889342045124
| 71>   H   7.41226397063272      0.08375010607248     11.39509165192676
| 72>   C   9.40409894195056     -2.19780138486915      9.73270872202122
| 73>   H   10.41763167631180     -2.17376440985463      9.32514710029874
| 74>   H   9.33759647175383     -3.02625651903131     10.44258410379550
| 75>   H   8.70307652314507     -2.38939434802245      8.91680263782164
| 76>   C   10.06555470773849     -0.60254494609668     11.54021245419323
| 77>   H   9.84227224502622      0.35292400064544     12.02034731538584
| 78>   H   10.01042793264616     -1.38815896775571     12.29805200800553
| 79>   H   11.08639422118982     -0.56850203251495     11.15188126982835
| 80>   C   13.49653684003868      0.72634888805794      6.76096203479565
| 81>   H   13.54041211347261      1.79174517034355      6.99502623073019
| 82>   H   14.42984519350602      0.44359149945124      6.26774874761637
| 83>   H   12.67530965414263      0.57079830746473      6.05799795870624
| 84>   C   14.41250204884890      0.15009690967001      9.01985811429946
| 85>   H   14.23817312556527     -0.41750305423671      9.93632869725168
| 86>   H   15.37321983094510     -0.15646288474941      8.59883923613454
| 87>   H   14.47410883605980      1.20904998396926      9.27880854042406
| 88>   C   13.20661424374211     -1.58157467103917      7.68864893159296
| 89>   H   12.38510033066697     -1.77607577375762      6.99609264109876
| 90>   H   14.13534351281197     -1.92235647068589      7.22409035993507
| 91>   H   13.03979035607678     -2.16743594704946      8.59522853732405
| 92> *
| 93> 
| 94>                          ****END OF INPUT****
================================================================================

                       ****************************
                       * Single Point Calculation *
                       ****************************

---------------------------------
CARTESIAN COORDINATES (ANGSTROEM)
---------------------------------
  Fe     9.689334    3.398495    6.870011
  O      9.732235    1.414149    6.688332
  O     10.965708    4.227172    5.896551
  O      8.049191    4.113395    6.705746
  C      8.990408    0.567838    5.800630
  C     11.044323    5.261465    4.944767
  C      6.844186    4.489225    7.324379
  C      9.703623   -0.774467    5.725058
  H     10.722898   -0.648110    5.354911
  H      9.174753   -1.452019    5.051129
  H      9.743567   -1.247918    6.710014
  C      7.577540    0.390220    6.337042
  H      7.604758   -0.011070    7.352103
  H      7.008820   -0.292808    5.701343
  H      7.060515    1.350820    6.356110
  C      8.966438    1.232248    4.432616
  H      8.450363    2.194975    4.482094
  H      8.436701    0.606094    3.711049
  H      9.982831    1.397765    4.069384
  C     12.471709    5.275141    4.407746
  H     13.179508    5.457368    5.219266
  H     12.601825    6.054550    3.652598
  H     12.711189    4.309911    3.956477
  C     10.719281    6.591488    5.618741
  H      9.705743    6.567442    6.026291
  H     10.785770    7.419916    4.908832
  H     11.420287    6.783134    6.434649
  C     10.057882    4.996145    3.811298
  H     10.281192    4.040664    3.331198
  H     10.112995    5.781733    3.053430
  H      9.037041    4.962088    4.199623
  C      6.627412    3.668450    8.591310
  H      6.583508    2.602910    8.357918
  H      5.694226    3.951481    9.084597
  H      7.448823    3.824459    9.293961
  C      5.710829    4.243279    6.332291
  H      5.884889    4.810336    5.415433
  H      4.750205    4.550042    6.753376
  H      5.649212    3.184166    6.073994
  C      6.916984    5.975810    7.662139
  H      7.738678    6.170772    8.354351
  H      5.988365    6.316828    8.126744
  H      7.083531    6.561128    6.755158
  Fe    10.434105    0.995220    8.481560
  O     10.391235    2.979568    8.663227
  O      9.157722    0.166538    9.455003
  O     12.074247    0.280328    8.645866
  C     11.133156    3.825857    9.550859
  C      9.079098   -0.867798   10.406742
  C     13.279393   -0.095197    8.027327
  C     10.419986    5.168183    9.626482
  H      9.400735    5.041855    9.996707
  H     10.948927    5.845724   10.300367
  H     10.379979    5.641632    8.641527
  C     12.545976    4.003417    9.014298
  H     12.518665    4.404718    7.999243
  H     13.114791    4.686416    9.649942
  H     13.062959    3.042794    8.995163
  C     11.157235    3.161453   10.918873
  H     11.673284    2.198715   10.869351
  H     11.687052    3.787598   11.640389
  H     10.140872    2.995960   11.282199
  C      7.651718   -0.881465   10.943777
  H      6.943905   -1.063642   10.132258
  H      7.521593   -1.660905   11.698893
  H      7.412264    0.083750   11.395092
  C      9.404099   -2.197801    9.732709
  H     10.417632   -2.173764    9.325147
  H      9.337596   -3.026257   10.442584
  H      8.703077   -2.389394    8.916803
  C     10.065555   -0.602545   11.540212
  H      9.842272    0.352924   12.020347
  H     10.010428   -1.388159   12.298052
  H     11.086394   -0.568502   11.151881
  C     13.496537    0.726349    6.760962
  H     13.540412    1.791745    6.995026
  H     14.429845    0.443591    6.267749
  H     12.675310    0.570798    6.057998
  C     14.412502    0.150097    9.019858
  H     14.238173   -0.417503    9.936329
  H     15.373220   -0.156463    8.598839
  H     14.474109    1.209050    9.278809
  C     13.206614   -1.581575    7.688649
  H     12.385100   -1.776076    6.996093
  H     14.135344   -1.922356    7.224090
  H     13.039790   -2.167436    8.595229

----------------------------
CARTESIAN COORDINATES (A.U.)
----------------------------
  NO LB      ZA    FRAG     MASS         X           Y           Z
   0 Fe   26.0000    0    55.850   18.310188    6.422225   12.982439
   1 O     8.0000    0    15.999   18.391259    2.672354   12.639116
   2 O     8.0000    0    15.999   20.722185    7.988197   11.142866
   3 O     8.0000    0    15.999   15.210767    7.773191   12.672024
   4 C     6.0000    0    12.011   16.989410    1.073059   10.961602
   5 C     6.0000    0    12.011   20.870745    9.942729    9.344255
   6 C     6.0000    0    12.011   12.933638    8.483405   13.841070
   7 C     6.0000    0    12.011   18.337190   -1.463531   10.818791
   8 H     1.0000    0     1.008   20.263340   -1.224750   10.119316
   9 H     1.0000    0     1.008   17.337771   -2.743919    9.545251
  10 H     1.0000    0     1.008   18.412673   -2.358223   12.680089
  11 C     6.0000    0    12.011   14.319475    0.737410   11.975273
  12 H     1.0000    0     1.008   14.370910   -0.020920   13.893462
  13 H     1.0000    0     1.008   13.244751   -0.553328   10.773978
  14 H     1.0000    0     1.008   13.342439    2.552679   12.011308
  15 C     6.0000    0    12.011   16.944112    2.328611    8.376431
  16 H     1.0000    0     1.008   15.968872    4.147901    8.469931
  17 H     1.0000    0     1.008   15.943054    1.145351    7.012866
  18 H     1.0000    0     1.008   18.864816    2.641392    7.690021
  19 C     6.0000    0    12.011   23.568114    9.968571    8.329434
  20 H     1.0000    0     1.008   24.905660   10.312931    9.862983
  21 H     1.0000    0     1.008   23.813999   11.441442    6.902410
  22 H     1.0000    0     1.008   24.020666    8.144552    7.476658
  23 C     6.0000    0    12.011   20.256506   12.456107   10.617882
  24 H     1.0000    0     1.008   18.341195   12.410666   11.388039
  25 H     1.0000    0     1.008   20.382151   14.021609    9.276349
  26 H     1.0000    0     1.008   21.581215   12.818265   12.159724
  27 C     6.0000    0    12.011   19.006642    9.441345    7.202309
  28 H     1.0000    0     1.008   19.428637    7.635749    6.295051
  29 H     1.0000    0     1.008   19.110790   10.925891    5.770146
  30 H     1.0000    0     1.008   17.077532    9.376987    7.936138
  31 C     6.0000    0    12.011   12.523994    6.932366   16.235222
  32 H     1.0000    0     1.008   12.441026    4.918787   15.794176
  33 H     1.0000    0     1.008   10.760528    7.467218   17.167401
  34 H     1.0000    0     1.008   14.076236    7.227180   17.563041
  35 C     6.0000    0    12.011   10.791903    8.018635   11.966296
  36 H     1.0000    0     1.008   11.120828    9.090217   10.233685
  37 H     1.0000    0     1.008    8.976587    8.598333   12.762031
  38 H     1.0000    0     1.008   10.675463    6.017202   11.478186
  39 C     6.0000    0    12.011   13.071205   11.292644   14.479344
  40 H     1.0000    0     1.008   14.623982   11.661068   15.787435
  41 H     1.0000    0     1.008   11.316370   11.937076   15.357321
  42 H     1.0000    0     1.008   13.385934   12.398735   12.765398
  43 Fe   26.0000    0    55.850   19.717600    1.880693   16.027826
  44 O     8.0000    0    15.999   19.636589    5.630567   16.371126
  45 O     8.0000    0    15.999   17.305587    0.314710   17.867366
  46 O     8.0000    0    15.999   22.817021    0.529742   16.338319
  47 C     6.0000    0    12.011   21.038616    7.229823   18.048507
  48 C     6.0000    0    12.011   17.157009   -1.639900   19.665892
  49 C     6.0000    0    12.011   25.094415   -0.179896   15.169450
  50 C     6.0000    0    12.011   19.690920    9.766451   18.191414
  51 H     1.0000    0     1.008   17.764815    9.527726   18.891039
  52 H     1.0000    0     1.008   20.690473   11.046817   19.464872
  53 H     1.0000    0     1.008   19.615318   10.661139   16.330119
  54 C     6.0000    0    12.011   23.708458    7.565361   17.034555
  55 H     1.0000    0     1.008   23.656848    8.323711   15.116379
  56 H     1.0000    0     1.008   24.783363    8.856042   18.235748
  57 H     1.0000    0     1.008   24.685414    5.750048   16.998394
  58 C     6.0000    0    12.011   21.084118    5.974281   20.633679
  59 H     1.0000    0     1.008   22.059310    4.154969   20.540097
  60 H     1.0000    0     1.008   22.085328    7.157523   21.997148
  61 H     1.0000    0     1.008   19.163470    5.661544   21.320266
  62 C     6.0000    0    12.011   14.459651   -1.665727   20.680742
  63 H     1.0000    0     1.008   13.122079   -2.009992   19.147193
  64 H     1.0000    0     1.008   14.213751   -3.138655   22.107705
  65 H     1.0000    0     1.008   14.007149    0.158265   21.533602
  66 C     6.0000    0    12.011   17.771172   -4.153243   18.392154
  67 H     1.0000    0     1.008   19.686471   -4.107819   17.621974
  68 H     1.0000    0     1.008   17.645500   -5.718796   19.733624
  69 H     1.0000    0     1.008   16.446431   -4.515301   16.850315
  70 C     6.0000    0    12.011   19.021142   -1.138645   21.807841
  71 H     1.0000    0     1.008   18.599199    0.666930   22.715164
  72 H     1.0000    0     1.008   18.916967   -2.623240   23.239950
  73 H     1.0000    0     1.008   20.950249   -1.074313   21.074001
  74 C     6.0000    0    12.011   25.504758    1.372600   12.776367
  75 H     1.0000    0     1.008   25.587671    3.385908   13.218684
  76 H     1.0000    0     1.008   27.268456    0.838266   11.844329
  77 H     1.0000    0     1.008   23.952864    1.078652   11.447957
  78 C     6.0000    0    12.011   27.235682    0.283642   17.045062
  79 H     1.0000    0     1.008   26.906248   -0.788966   18.776940
  80 H     1.0000    0     1.008   29.051175   -0.295672   16.249451
  81 H     1.0000    0     1.008   27.352102    2.284773   17.534407
  82 C     6.0000    0    12.011   24.956884   -2.988743   14.529441
  83 H     1.0000    0     1.008   23.404448   -3.356297   13.220699
  84 H     1.0000    0     1.008   26.711928   -3.632727   13.651552
  85 H     1.0000    0     1.008   24.641633   -4.095860   16.242628

--------------------------------
INTERNAL COORDINATES (ANGSTROEM)
--------------------------------
 Fe     0   0   0     0.000000000000     0.00000000     0.00000000
 O      1   0   0     1.993107549455     0.00000000     0.00000000
 O      1   2   0     1.806505091625   113.10231808     0.00000000
 O      1   2   3     1.796700904677   114.04552864   133.01846151
 C      2   1   3     1.433374881917   129.28282384   265.62177211
 C      3   1   2     1.407777092796   137.79926283   127.71549221
 C      4   1   2     1.405699163933   148.06825896    87.50202535
 C      5   2   1     1.521896977890   107.99741801   161.25379371
 H      8   5   2     1.091739735083   110.62703697   300.39822293
 H      8   5   2     1.092226990877   110.53974062   180.39253076
 H      8   5   2     1.093567678088   110.74717911    61.04813928
 C      5   2   1     1.521671117121   109.33776788   281.49633108
 H     12   5   2     1.091844964879   110.33318893   303.37356660
 H     12   5   2     1.092740847370   110.55615385   182.83745074
 H     12   5   2     1.091068079707   110.08301358    63.23330203
 C      5   2   1     1.521011664864   107.89395438    41.95310685
 H     16   5   2     1.093445742002   110.56929101   297.51158001
 H     16   5   2     1.092405524114   110.56989899   178.20004219
 H     16   5   2     1.091965277996   110.53157831    57.94551400
 C      6   3   1     1.525125725684   107.27231764   188.01861451
 H     20   6   3     1.092131115232   110.26785718   299.89369125
 H     20   6   3     1.093004626942   111.16676388   179.52045401
 H     20   6   3     1.092090957728   110.04802679    59.18533840
 C      6   3   1     1.526058276454   109.25880069    68.44056158
 H     24   6   3     1.092673442588   110.06673815   299.25255474
 H     24   6   3     1.093015850944   111.14708163   179.16798011
 H     24   6   3     1.092631192340   110.24327017    59.14245701
 C      6   3   1     1.525847846303   109.77796255   307.74131947
 H     28   6   3     1.092385663119   110.26804375   300.74569760
 H     28   6   3     1.092954363069   110.94766441   180.78805233
 H     28   6   3     1.092736405581   110.20539659    60.69814756
 C      7   4   1     1.525049547713   110.09381823   335.47794786
 H     32   7   4     1.091684529296   110.69649156   300.20552021
 H     32   7   4     1.092829319010   110.91474983   179.88748610
 H     32   7   4     1.092141680371   110.52963898    59.68829182
 C      7   4   1     1.526180168188   107.90398428   214.99342770
 H     36   7   4     1.092006729297   110.10451756   301.95805268
 H     36   7   4     1.092801069397   110.92053369   181.80498735
 H     36   7   4     1.091894451825   110.60928649    61.62555019
 C      7   4   1     1.526209653717   108.47711868    96.27410139
 H     40   7   4     1.091947240136   110.49308090   298.89563322
 H     40   7   4     1.092925223260   110.94510396   178.75024097
 H     40   7   4     1.092222554272   110.21133548    58.70144267
 Fe     2   1   3     1.970732894233    97.83748226   108.07413413
 O      1   2   3     1.970733142054    82.16251432   251.92686976
 O     44   2   1     1.806503974410   109.64539267   111.80325886
 O     44   2   1     1.796701418123   119.53181892   246.75072762
 C     45   1   2     1.433367677326   128.48618692   157.80613428
 C     46  44   2     1.407778078088   137.79905678   142.57522289
 C     47  44   2     1.405697108422   148.06832977     7.17758526
 C     48  45   1     1.521896890553   107.99737703    47.65516255
 H     51  48  45     1.091740878677   110.62698516    59.60144374
 H     51  48  45     1.092227043795   110.53981124   179.60719630
 H     51  48  45     1.093567669796   110.74714961   298.95158761
 C     48  45   1     1.521671397137   109.33642839   287.41291335
 H     55  48  45     1.091845047757   110.33304431    56.62762102
 H     55  48  45     1.092740498565   110.55603544   177.16359468
 H     55  48  45     1.091069554004   110.08319457   296.76797289
 C     48  45   1     1.521011232639   107.89420551   166.95637344
 H     59  48  45     1.093445810481   110.56923085    62.48841958
 H     59  48  45     1.092405551714   110.56988606   181.79983966
 H     59  48  45     1.091965080992   110.53167797   302.05447299
 C     49  46  44     1.525125465273   107.27221384   171.98187412
 H     63  49  46     1.092131110275   110.26787089    60.10640920
 H     63  49  46     1.093004562505   111.16672698   180.47962442
 H     63  49  46     1.092090932693   110.04802097   300.81473416
 C     49  46  44     1.526058857829   109.25907492   291.55980523
 H     67  49  46     1.092672345807   110.06683529    60.74749211
 H     67  49  46     1.093015802956   111.14707075   180.83224314
 H     67  49  46     1.092631243115   110.24310550   300.85758849
 C     49  46  44     1.525847802626   109.77789971    52.25939805
 H     71  49  46     1.092385211945   110.26790232    59.25363323
 H     71  49  46     1.092954318204   110.94769325   179.21130722
 H     71  49  46     1.092736629266   110.20546305   299.30112096
 C     50  47  44     1.525047492305   110.09298838    24.53598060
 H     75  50  47     1.091686917456   110.69622438    59.79298279
 H     75  50  47     1.092829158704   110.91497715   180.11120091
 H     75  50  47     1.092139444508   110.52936443   300.31040136
 C     50  47  44     1.526179515478   107.90397890   145.01942197
 H     79  50  47     1.092006695006   110.10440158    58.04236615
 H     79  50  47     1.092801198829   110.92042088   178.19527150
 H     79  50  47     1.091893920209   110.60956114   298.37472153
 C     50  47  44     1.526210294586   108.47765850   263.73908870
 H     83  50  47     1.091947802708   110.49298707    61.10491282
 H     83  50  47     1.092924954742   110.94500992   181.25012263
 H     83  50  47     1.092222608149   110.21152834   301.29897963

---------------------------
INTERNAL COORDINATES (A.U.)
---------------------------
 Fe     0   0   0     0.000000000000     0.00000000     0.00000000
 O      1   0   0     3.766427423922     0.00000000     0.00000000
 O      1   2   0     3.413799882707   113.10231808     0.00000000
 O      1   2   3     3.395272654409   114.04552864   133.01846151
 C      2   1   3     2.708685974064   129.28282384   265.62177211
 C      3   1   2     2.660313162992   137.79926283   127.71549221
 C      4   1   2     2.656386446515   148.06825896    87.50202535
 C      5   2   1     2.875968492255   107.99741801   161.25379371
 H      8   5   2     2.063089108827   110.62703697   300.39822293
 H      8   5   2     2.064009888834   110.53974062   180.39253076
 H      8   5   2     2.066543420494   110.74717911    61.04813928
 C      5   2   1     2.875541677257   109.33776788   281.49633108
 H     12   5   2     2.063287964323   110.33318893   303.37356660
 H     12   5   2     2.064980936877   110.55615385   182.83745074
 H     12   5   2     2.061819864110   110.08301358    63.23330203
 C      5   2   1     2.874295493093   107.89395438    41.95310685
 H     16   5   2     2.066312994685   110.56929101   297.51158001
 H     16   5   2     2.064347267757   110.56989899   178.20004219
 H     16   5   2     2.063515323164   110.53157831    57.94551400
 C      6   3   1     2.882069941341   107.27231764   188.01861451
 H     20   6   3     2.063828710122   110.26785718   299.89369125
 H     20   6   3     2.065479408029   111.16676388   179.52045401
 H     20   6   3     2.063752823438   110.04802679    59.18533840
 C      6   3   1     2.883832206902   109.25880069    68.44056158
 H     24   6   3     2.064853560300   110.06673815   299.25255474
 H     24   6   3     2.065500618319   111.14708163   179.16798011
 H     24   6   3     2.064773718903   110.24327017    59.14245701
 C      6   3   1     2.883434551546   109.77796255   307.74131947
 H     28   6   3     2.064309735916   110.26804375   300.74569760
 H     28   6   3     2.065384423074   110.94766441   180.78805233
 H     28   6   3     2.064972543114   110.20539659    60.69814756
 C      7   4   1     2.881925985839   110.09381823   335.47794786
 H     32   7   4     2.062984785008   110.69649156   300.20552021
 H     32   7   4     2.065148124049   110.91474983   179.88748610
 H     32   7   4     2.063848675341   110.52963898    59.68829182
 C      7   4   1     2.884062548897   107.90398428   214.99342770
 H     36   7   4     2.063593654770   110.10451756   301.95805268
 H     36   7   4     2.065094740016   110.92053369   181.80498735
 H     36   7   4     2.063381481097   110.60928649    61.62555019
 C      7   4   1     2.884118268471   108.47711868    96.27410139
 H     40   7   4     2.063481236548   110.49308090   298.89563322
 H     40   7   4     2.065329356815   110.94510396   178.75024097
 H     40   7   4     2.064001504867   110.21133548    58.70144267
 Fe     2   1   3     3.724145453210    97.83748226   108.07413413
 O      1   2   3     3.724145921524    82.16251432   251.92686976
 O     44   2   1     3.413797771476   109.64539267   111.80325886
 O     44   2   1     3.395273624681   119.53181892   246.75072762
 C     45   1   2     2.708672359361   128.48618692   157.80613428
 C     46  44   2     2.660315024924   137.79905678   142.57522289
 C     47  44   2     2.656382562163   148.06832977     7.17758526
 C     48  45   1     2.875968327211   107.99737703    47.65516255
 H     51  48  45     2.063091269906   110.62698516    59.60144374
 H     51  48  45     2.064009988836   110.53981124   179.60719630
 H     51  48  45     2.066543404824   110.74714961   298.95158761
 C     48  45   1     2.875542206411   109.33642839   287.41291335
 H     55  48  45     2.063288120938   110.33304431    56.62762102
 H     55  48  45     2.064980277732   110.55603544   177.16359468
 H     55  48  45     2.061822650127   110.08319457   296.76797289
 C     48  45   1     2.874294676305   107.89420551   166.95637344
 H     59  48  45     2.066313124093   110.56923085    62.48841958
 H     59  48  45     2.064347319915   110.56988606   181.79983966
 H     59  48  45     2.063514950880   110.53167797   302.05447299
 C     49  46  44     2.882069449236   107.27221384   171.98187412
 H     63  49  46     2.063828700755   110.26787089    60.10640920
 H     63  49  46     2.065479286260   111.16672698   180.47962442
 H     63  49  46     2.063752776128   110.04802097   300.81473416
 C     49  46  44     2.883833305541   109.25907492   291.55980523
 H     67  49  46     2.064851487684   110.06683529    60.74749211
 H     67  49  46     2.065500527634   111.14707075   180.83224314
 H     67  49  46     2.064773814854   110.24310550   300.85758849
 C     49  46  44     2.883434469008   109.77789971    52.25939805
 H     71  49  46     2.064308883321   110.26790232    59.25363323
 H     71  49  46     2.065384338293   110.94769325   179.21130722
 H     71  49  46     2.064972965816   110.20546305   299.30112096
 C     50  47  44     2.881922101680   110.09298838    24.53598060
 H     75  50  47     2.062989297977   110.69622438    59.79298279
 H     75  50  47     2.065147821114   110.91497715   180.11120091
 H     75  50  47     2.063844450173   110.52936443   300.31040136
 C     50  47  44     2.884061315454   107.90397890   145.01942197
 H     79  50  47     2.063593589969   110.10440158    58.04236615
 H     79  50  47     2.065094984607   110.92042088   178.19527150
 H     79  50  47     2.063380476488   110.60956114   298.37472153
 C     50  47  44     2.884119479539   108.47765850   263.73908870
 H     83  50  47     2.063482299654   110.49298707    61.10491282
 H     83  50  47     2.065328849391   110.94500992   181.25012263
 H     83  50  47     2.064001606679   110.21152834   301.29897963

---------------------
BASIS SET INFORMATION
---------------------
There are 4 groups of distinct atoms

 Group   1 Type Fe  : 17s11p7d1f contracted to 6s4p4d1f pattern {842111/6311/4111/1}
 Group   2 Type O   : 11s6p2d1f contracted to 5s3p2d1f pattern {62111/411/11/1}
 Group   3 Type C   : 11s6p2d1f contracted to 5s3p2d1f pattern {62111/411/11/1}
 Group   4 Type H   : 5s1p contracted to 3s1p pattern {311/1}

Atom   0Fe   basis set group =>   1
Atom   1O    basis set group =>   2
Atom   2O    basis set group =>   2
Atom   3O    basis set group =>   2
Atom   4C    basis set group =>   3
Atom   5C    basis set group =>   3
Atom   6C    basis set group =>   3
Atom   7C    basis set group =>   3
Atom   8H    basis set group =>   4
Atom   9H    basis set group =>   4
Atom  10H    basis set group =>   4
Atom  11C    basis set group =>   3
Atom  12H    basis set group =>   4
Atom  13H    basis set group =>   4
Atom  14H    basis set group =>   4
Atom  15C    basis set group =>   3
Atom  16H    basis set group =>   4
Atom  17H    basis set group =>   4
Atom  18H    basis set group =>   4
Atom  19C    basis set group =>   3
Atom  20H    basis set group =>   4
Atom  21H    basis set group =>   4
Atom  22H    basis set group =>   4
Atom  23C    basis set group =>   3
Atom  24H    basis set group =>   4
Atom  25H    basis set group =>   4
Atom  26H    basis set group =>   4
Atom  27C    basis set group =>   3
Atom  28H    basis set group =>   4
Atom  29H    basis set group =>   4
Atom  30H    basis set group =>   4
Atom  31C    basis set group =>   3
Atom  32H    basis set group =>   4
Atom  33H    basis set group =>   4
Atom  34H    basis set group =>   4
Atom  35C    basis set group =>   3
Atom  36H    basis set group =>   4
Atom  37H    basis set group =>   4
Atom  38H    basis set group =>   4
Atom  39C    basis set group =>   3
Atom  40H    basis set group =>   4
Atom  41H    basis set group =>   4
Atom  42H    basis set group =>   4
Atom  43Fe   basis set group =>   1
Atom  44O    basis set group =>   2
Atom  45O    basis set group =>   2
Atom  46O    basis set group =>   2
Atom  47C    basis set group =>   3
Atom  48C    basis set group =>   3
Atom  49C    basis set group =>   3
Atom  50C    basis set group =>   3
Atom  51H    basis set group =>   4
Atom  52H    basis set group =>   4
Atom  53H    basis set group =>   4
Atom  54C    basis set group =>   3
Atom  55H    basis set group =>   4
Atom  56H    basis set group =>   4
Atom  57H    basis set group =>   4
Atom  58C    basis set group =>   3
Atom  59H    basis set group =>   4
Atom  60H    basis set group =>   4
Atom  61H    basis set group =>   4
Atom  62C    basis set group =>   3
Atom  63H    basis set group =>   4
Atom  64H    basis set group =>   4
Atom  65H    basis set group =>   4
Atom  66C    basis set group =>   3
Atom  67H    basis set group =>   4
Atom  68H    basis set group =>   4
Atom  69H    basis set group =>   4
Atom  70C    basis set group =>   3
Atom  71H    basis set group =>   4
Atom  72H    basis set group =>   4
Atom  73H    basis set group =>   4
Atom  74C    basis set group =>   3
Atom  75H    basis set group =>   4
Atom  76H    basis set group =>   4
Atom  77H    basis set group =>   4
Atom  78C    basis set group =>   3
Atom  79H    basis set group =>   4
Atom  80H    basis set group =>   4
Atom  81H    basis set group =>   4
Atom  82C    basis set group =>   3
Atom  83H    basis set group =>   4
Atom  84H    basis set group =>   4
Atom  85H    basis set group =>   4
---------------------------------
AUXILIARY/J BASIS SET INFORMATION
---------------------------------
There are 4 groups of distinct atoms

 Group   1 Type Fe  : 19s5p5d3f3g contracted to 8s5p5d2f3g pattern {121111111/11111/11111/21/111}
 Group   2 Type O   : 12s5p4d2f1g contracted to 6s4p3d1f1g pattern {711111/2111/211/2/1}
 Group   3 Type C   : 12s5p4d2f1g contracted to 6s4p3d1f1g pattern {711111/2111/211/2/1}
 Group   4 Type H   : 5s2p1d contracted to 3s1p1d pattern {311/2/1}

Atom   0Fe   basis set group =>   1
Atom   1O    basis set group =>   2
Atom   2O    basis set group =>   2
Atom   3O    basis set group =>   2
Atom   4C    basis set group =>   3
Atom   5C    basis set group =>   3
Atom   6C    basis set group =>   3
Atom   7C    basis set group =>   3
Atom   8H    basis set group =>   4
Atom   9H    basis set group =>   4
Atom  10H    basis set group =>   4
Atom  11C    basis set group =>   3
Atom  12H    basis set group =>   4
Atom  13H    basis set group =>   4
Atom  14H    basis set group =>   4
Atom  15C    basis set group =>   3
Atom  16H    basis set group =>   4
Atom  17H    basis set group =>   4
Atom  18H    basis set group =>   4
Atom  19C    basis set group =>   3
Atom  20H    basis set group =>   4
Atom  21H    basis set group =>   4
Atom  22H    basis set group =>   4
Atom  23C    basis set group =>   3
Atom  24H    basis set group =>   4
Atom  25H    basis set group =>   4
Atom  26H    basis set group =>   4
Atom  27C    basis set group =>   3
Atom  28H    basis set group =>   4
Atom  29H    basis set group =>   4
Atom  30H    basis set group =>   4
Atom  31C    basis set group =>   3
Atom  32H    basis set group =>   4
Atom  33H    basis set group =>   4
Atom  34H    basis set group =>   4
Atom  35C    basis set group =>   3
Atom  36H    basis set group =>   4
Atom  37H    basis set group =>   4
Atom  38H    basis set group =>   4
Atom  39C    basis set group =>   3
Atom  40H    basis set group =>   4
Atom  41H    basis set group =>   4
Atom  42H    basis set group =>   4
Atom  43Fe   basis set group =>   1
Atom  44O    basis set group =>   2
Atom  45O    basis set group =>   2
Atom  46O    basis set group =>   2
Atom  47C    basis set group =>   3
Atom  48C    basis set group =>   3
Atom  49C    basis set group =>   3
Atom  50C    basis set group =>   3
Atom  51H    basis set group =>   4
Atom  52H    basis set group =>   4
Atom  53H    basis set group =>   4
Atom  54C    basis set group =>   3
Atom  55H    basis set group =>   4
Atom  56H    basis set group =>   4
Atom  57H    basis set group =>   4
Atom  58C    basis set group =>   3
Atom  59H    basis set group =>   4
Atom  60H    basis set group =>   4
Atom  61H    basis set group =>   4
Atom  62C    basis set group =>   3
Atom  63H    basis set group =>   4
Atom  64H    basis set group =>   4
Atom  65H    basis set group =>   4
Atom  66C    basis set group =>   3
Atom  67H    basis set group =>   4
Atom  68H    basis set group =>   4
Atom  69H    basis set group =>   4
Atom  70C    basis set group =>   3
Atom  71H    basis set group =>   4
Atom  72H    basis set group =>   4
Atom  73H    basis set group =>   4
Atom  74C    basis set group =>   3
Atom  75H    basis set group =>   4
Atom  76H    basis set group =>   4
Atom  77H    basis set group =>   4
Atom  78C    basis set group =>   3
Atom  79H    basis set group =>   4
Atom  80H    basis set group =>   4
Atom  81H    basis set group =>   4
Atom  82C    basis set group =>   3
Atom  83H    basis set group =>   4
Atom  84H    basis set group =>   4
Atom  85H    basis set group =>   4


           ************************************************************
           *        Program running with 32 parallel MPI-processes    *
           *              working on a common directory               *
           ************************************************************
------------------------------------------------------------------------------
                           ORCA GTO INTEGRAL CALCULATION
                           -- RI-GTO INTEGRALS CHOSEN --
------------------------------------------------------------------------------
------------------------------------------------------------------------------
                   ___                                                        
                  /   \      - P O W E R E D   B Y -                         
                 /     \                                                     
                 |  |  |   _    _      __       _____    __    __             
                 |  |  |  | |  | |    /  \     |  _  \  |  |  /  |          
                  \  \/   | |  | |   /    \    | | | |  |  | /  /          
                 / \  \   | |__| |  /  /\  \   | |_| |  |  |/  /          
                |  |  |   |  __  | /  /__\  \  |    /   |      \           
                |  |  |   | |  | | |   __   |  |    \   |  |\   \          
                \     /   | |  | | |  |  |  |  | |\  \  |  | \   \       
                 \___/    |_|  |_| |__|  |__|  |_| \__\ |__|  \__/        
                                                                              
                      - O R C A' S   B I G   F R I E N D -                    
                                      &                                       
                       - I N T E G R A L  F E E D E R -                       
                                                                              
 v1 FN, 2020, v2 2021                                                         
------------------------------------------------------------------------------


Reading SHARK input file Fe2_tert-butoxide_6_HighSpin.SHARKINP.tmp ... ok
----------------------
SHARK INTEGRAL PACKAGE
----------------------

Number of atoms                             ...     86
Number of basis functions                   ...   1344
Number of shells                            ...    576
Maximum angular momentum                    ...      3
Integral batch strategy                     ... SHARK/LIBINT Hybrid
RI-J (if used) integral strategy            ... SPLIT-RIJ (Revised 2003 algorithm where possible)
Printlevel                                  ...      1
Contraction scheme used                     ... SEGMENTED contraction
Coulomb Range Separation                    ... NOT USED
Exchange Range Separation                   ... NOT USED
Finite Nucleus Model                        ... NOT USED
Auxiliary Coulomb fitting basis             ... AVAILABLE
   # of basis functions in Aux-J            ...   2242
   # of shells in Aux-J                     ...    766
   Maximum angular momentum in Aux-J        ...      4
Auxiliary J/K fitting basis                 ... NOT available
Auxiliary Correlation fitting basis         ... NOT available
Auxiliary 'external' fitting basis          ... NOT available
Integral threshold                          ...     1.000000e-10
Primitive cut-off                           ...     1.000000e-11
Primitive pair pre-selection threshold      ...     1.000000e-11

Calculating pre-screening integrals         ... done (  0.1 sec) Dimension = 576
Organizing shell pair data                  ... done (  0.8 sec)
Shell pair information
Total number of shell pairs                 ...    166176
Shell pairs after pre-screening             ...    100271
Total number of primitive shell pairs       ...    497446
Primitive shell pairs kept                  ...    187841
          la=0 lb=0:  32173 shell pairs
          la=1 lb=0:  30380 shell pairs
          la=1 lb=1:   7248 shell pairs
          la=2 lb=0:  13284 shell pairs
          la=2 lb=1:   6275 shell pairs
          la=2 lb=2:   1445 shell pairs
          la=3 lb=0:   5470 shell pairs
          la=3 lb=1:   2590 shell pairs
          la=3 lb=2:   1168 shell pairs
          la=3 lb=3:    238 shell pairs

Calculating one electron integrals          ... done (  0.1 sec)
Calculating RI/J V-Matrix + Cholesky decomp.... done (  1.4 sec)
Calculating Nuclear repulsion               ... done (  0.0 sec) ENN=   5533.143357131468 Eh

SHARK setup successfully completed in   3.4 seconds

Maximum memory used throughout the entire GTOINT-calculation: 141.0 MB


           ************************************************************
           *        Program running with 32 parallel MPI-processes    *
           *              working on a common directory               *
           ************************************************************
-------------------------------------------------------------------------------
                                 ORCA SCF
-------------------------------------------------------------------------------

------------
SCF SETTINGS
------------
Hamiltonian:
 Density Functional     Method          .... DFT(GTOs)
 Exchange Functional    Exchange        .... PBE
   PBE kappa parameter   XKappa         ....  0.804000
   PBE mue parameter    XMuePBE         ....  0.219520
 Correlation Functional Correlation     .... PBE
   PBE beta parameter  CBetaPBE         ....  0.066725
 LDA part of GGA corr.  LDAOpt          .... PW91-LDA
 Gradients option       PostSCFGGA      .... off
   Density functional embedding theory  .... OFF
   NL short-range parameter             ....  6.400000
 RI-approximation to the Coulomb term is turned on
   Number of AuxJ basis functions       .... 2242


General Settings:
 Integral files         IntName         .... Fe2_tert-butoxide_6_HighSpin
 Hartree-Fock type      HFTyp           .... UHF
 Total Charge           Charge          ....    0
 Multiplicity           Mult            ....   11
 Number of Electrons    NEL             ....  298
 Basis Dimension        Dim             .... 1344
 Nuclear Repulsion      ENuc            ....   5533.1433571315 Eh

Convergence Acceleration:
 DIIS                   CNVDIIS         .... on
   Start iteration      DIISMaxIt       ....    12
   Startup error        DIISStart       ....  0.200000
   # of expansion vecs  DIISMaxEq       ....     5
   Bias factor          DIISBfac        ....   1.050
   Max. coefficient     DIISMaxC        ....  10.000
 Trust-Rad. Augm. Hess. CNVTRAH         .... auto
   Auto Start mean grad. ratio tolernc. ....  1.125000
   Auto Start start iteration           ....    20
   Auto Start num. interpolation iter.  ....    10
   Max. Number of Micro iterations      ....    16
   Max. Number of Macro iterations      .... Maxiter - #DIIS iter
   Number of Davidson start vectors     ....     2
   Converg. threshold I  (grad. norm)   ....   5.000e-05
   Converg. threshold II (energy diff.) ....   1.000e-06
   Grad. Scal. Fac. for Micro threshold ....   0.100
   Minimum threshold for Micro iter.    ....   0.010
   NR start threshold (gradient norm)   ....   0.001
   Initial trust radius                 ....   0.400
   Minimum AH scaling param. (alpha)    ....   1.000
   Maximum AH scaling param. (alpha)    .... 1000.000
   Orbital update algorithm             .... Taylor
   White noise on init. David. guess    .... on
   Maximum white noise                  ....   0.010
   Quad. conv. algorithm                .... NR
 SOSCF                  CNVSOSCF        .... off
 Level Shifting         CNVShift        .... on
   Level shift para.    LevelShift      ....    0.2500
   Turn off err/grad.   ShiftErr        ....    0.0010
 Zerner damping         CNVZerner       .... off
 Static damping         CNVDamp         .... on
   Fraction old density DampFac         ....    0.7000
   Max. Damping (<1)    DampMax         ....    0.9800
   Min. Damping (>=0)   DampMin         ....    0.0000
   Turn off err/grad.   DampErr         ....    0.1000
 Fernandez-Rico         CNVRico         .... off

SCF Procedure:
 Maximum # iterations   MaxIter         ....   125
 SCF integral mode      SCFMode         .... Direct
   Integral package                     .... SHARK and LIBINT hybrid scheme
 Reset frequency        DirectResetFreq ....    20
 Integral Threshold     Thresh          ....  1.000e-10 Eh
 Primitive CutOff       TCut            ....  1.000e-11 Eh

Convergence Tolerance:
 Convergence Check Mode ConvCheckMode   .... Total+1el-Energy
 Convergence forced     ConvForced      .... 0
 Energy Change          TolE            ....  1.000e-06 Eh
 1-El. energy change                    ....  1.000e-03 Eh
 DIIS Error             TolErr          ....  1.000e-06


Diagonalization of the overlap matrix:
Smallest eigenvalue                        ... 1.088e-04
Time for diagonalization                   ...    2.007 sec
Threshold for overlap eigenvalues          ... 1.000e-08
Number of eigenvalues below threshold      ... 0
Time for construction of square roots      ...    0.295 sec
Total time needed                          ...    2.314 sec

Time for model grid setup =    0.588 sec

------------------------------
INITIAL GUESS: MODEL POTENTIAL
------------------------------
Loading Hartree-Fock densities                     ... done
Calculating cut-offs                               ... done
Initializing the effective Hamiltonian             ... done
Setting up the integral package (SHARK)            ... done
Starting the Coulomb interaction                   ... done (   0.6 sec)
Reading the grid                                   ... done
Mapping shells                                     ... done
Starting the XC term evaluation                    ... done (   0.2 sec)
  promolecular density results
     # of electrons  =    297.990627435
     EX              =   -296.014056357
     EC              =    -10.490644179
     EX+EC           =   -306.504700535
Transforming the Hamiltonian                       ... done (   0.1 sec)
Diagonalizing the Hamiltonian                      ... done (   0.3 sec)
Back transforming the eigenvectors                 ... done (   0.1 sec)
Now organizing SCF variables                       ... done
                      ------------------
                      INITIAL GUESS DONE (   2.0 sec)
                      ------------------
-------------------
DFT GRID GENERATION
-------------------

General Integration Accuracy     IntAcc      ... 4.388
Radial Grid Type                 RadialGrid  ... OptM3 with GC (2021)
Angular Grid (max. ang.)         AngularGrid ... 4 (Lebedev-302)
Angular grid pruning method      GridPruning ... 4 (adaptive)
Weight generation scheme         WeightScheme... Becke
Basis function cutoff            BFCut       ... 1.0000e-10
Integration weight cutoff        WCut        ... 1.0000e-14
Angular grids for H and He will be reduced by one unit
Partially contracted basis set               ... off
Rotationally invariant grid construction     ... off

Total number of grid points                  ...   367996
Total number of batches                      ...     5788
Average number of points per batch           ...       63
Average number of grid points per atom       ...     4279
Time for grid setup =    2.264 sec

--------------
SCF ITERATIONS
--------------
ITER       Energy         Delta-E        Max-DP      RMS-DP      [F,P]     Damp
               ***  Starting incremental Fock matrix formation  ***
  0  -3922.5703426790   0.000000000000 0.21571218  0.00049583  0.2078680 0.7000
  1  -3922.9776520948  -0.407309415786 0.39230249  0.00128230  0.1689191 0.7000
                               ***Turning on DIIS***
  2  -3923.4883789419  -0.510726847116 0.12893501  0.00060816  0.0336568 0.0000
  3  -3923.9178706705  -0.429491728628 0.08769796  0.00029484  0.1653232 0.7000
  4  -3924.0625452011  -0.144674530596 0.08518310  0.00029779  0.1218262 0.7000
  5  -3924.1768349059  -0.114289704796 0.22280487  0.00079512  0.0805227 0.0000
  6  -3924.3258512467  -0.149016340761 0.01304823  0.00006271  0.0065298 0.0000
  7  -3924.3273947372  -0.001543490569 0.00713920  0.00003650  0.0085829 0.0000
  8  -3924.3284490590  -0.001054321802 0.00388541  0.00001988  0.0026846 0.0000
  9  -3924.3286783618  -0.000229302721 0.00198690  0.00001028  0.0017374 0.0000
 10  -3924.3287884413  -0.000110079566 0.00225839  0.00001522  0.0006009 0.0000
 11  -3924.3288564554  -0.000068014082 0.00039694  0.00000233  0.0005293 0.0000
 12  -3924.3288596772  -0.000003221770 0.00030051  0.00000144  0.0004931 0.0000
 13  -3924.3288646161  -0.000004938907 0.00012515  0.00000091  0.0002561 0.0000
 14  -3924.3288640237   0.000000592348 0.00022355  0.00000066  0.0003111 0.0000
 15  -3924.3288639204   0.000000103364 0.00010816  0.00000040  0.0002637 0.0000
 16  -3924.3288646051  -0.000000684698 0.00006680  0.00000021  0.0001172 0.0000
 17  -3924.3288649958  -0.000000390688 0.00004047  0.00000016  0.0000722 0.0000
 18  -3924.3288657324  -0.000000736616 0.00002258  0.00000013  0.0000348 0.0000
 19  -3924.3288653626   0.000000369786 0.00001201  0.00000011  0.0000264 0.0000
               *** Restarting incremental Fock matrix formation ***
                                   *** Resetting DIIS ***
 20  -3924.3288673248  -0.000001962253 0.00003958  0.00000036  0.0000059 0.0000
 21  -3924.3288683547  -0.000001029883 0.00001713  0.00000007  0.0000280 0.0000
 22  -3924.3288680720   0.000000282709 0.00000572  0.00000003  0.0000147 0.0000
                 **** Energy Check signals convergence ****

               *****************************************************
               *                     SUCCESS                       *
               *           SCF CONVERGED AFTER  23 CYCLES          *
               *****************************************************


----------------
TOTAL SCF ENERGY
----------------

Total Energy       :        -3924.32886864 Eh         -106786.41743 eV

Components:
Nuclear Repulsion  :         5533.14335713 Eh          150564.48530 eV
Electronic Energy  :        -9457.47222577 Eh         -257350.90273 eV
One Electron Energy:       -16425.82455167 Eh         -446969.40954 eV
Two Electron Energy:         6968.35232591 Eh          189618.50681 eV

Virial components:
Potential Energy   :        -7839.43884725 Eh         -213321.97611 eV
Kinetic Energy     :         3915.10997862 Eh          106535.55868 eV
Virial Ratio       :            2.00235470


DFT components:
N(Alpha)           :      154.000312536356 electrons
N(Beta)            :      144.000350685490 electrons
N(Total)           :      298.000663221846 electrons
E(X)               :     -301.036387794366 Eh       
E(C)               :      -10.409307002744 Eh       
E(XC)              :     -311.445694797109 Eh       
DFET-embed. en.    :        0.000000000000 Eh       

---------------
SCF CONVERGENCE
---------------

  Last Energy change         ...   -5.6434e-07  Tolerance :   1.0000e-06
  Last MAX-Density change    ...    2.2345e-05  Tolerance :   1.0000e-05
  Last RMS-Density change    ...    6.7534e-08  Tolerance :   1.0000e-06
  Last DIIS Error            ...    1.8502e-06  Tolerance :   1.0000e-06

             **** THE GBW FILE WAS UPDATED (Fe2_tert-butoxide_6_HighSpin.gbw) ****
             **** DENSITY Fe2_tert-butoxide_6_HighSpin.scfp WAS UPDATED ****
             **** ENERGY FILE WAS UPDATED (Fe2_tert-butoxide_6_HighSpin.en.tmp) ****
----------------------
UHF SPIN CONTAMINATION
----------------------

Warning: in a DFT calculation there is little theoretical justification to 
         calculate <S**2> as in Hartree-Fock theory. We will do it anyways
         but you should keep in mind that the values have only limited relevance

Expectation value of <S**2>     :    30.013356
Ideal value S*(S+1) for S=5.0   :    30.000000
Deviation                       :     0.013356

             **** THE GBW FILE WAS UPDATED (Fe2_tert-butoxide_6_HighSpin.gbw) ****
             **** DENSITY Fe2_tert-butoxide_6_HighSpin.scfp WAS UPDATED ****
----------------
ORBITAL ENERGIES
----------------
                 SPIN UP ORBITALS
  NO   OCC          E(Eh)            E(eV) 
   0   1.0000    -254.748684     -6932.0641 
   1   1.0000    -254.748683     -6932.0641 
   2   1.0000     -29.607392      -805.6581 
   3   1.0000     -29.607386      -805.6579 
   4   1.0000     -25.542884      -695.0572 
   5   1.0000     -25.542881      -695.0571 
   6   1.0000     -25.540764      -694.9995 
   7   1.0000     -25.540739      -694.9989 
   8   1.0000     -25.536967      -694.8962 
   9   1.0000     -25.536962      -694.8961 
  10   1.0000     -18.752226      -510.2740 
  11   1.0000     -18.752218      -510.2738 
  12   1.0000     -18.734387      -509.7886 
  13   1.0000     -18.734386      -509.7886 
  14   1.0000     -18.729325      -509.6508 
  15   1.0000     -18.729324      -509.6508 
  16   1.0000      -9.941612      -270.5250 
  17   1.0000      -9.941612      -270.5250 
  18   1.0000      -9.934429      -270.3296 
  19   1.0000      -9.934428      -270.3295 
  20   1.0000      -9.929364      -270.1917 
  21   1.0000      -9.929362      -270.1917 
  22   1.0000      -9.870930      -268.6017 
  23   1.0000      -9.870928      -268.6016 
  24   1.0000      -9.868465      -268.5346 
  25   1.0000      -9.868463      -268.5345 
  26   1.0000      -9.864236      -268.4195 
  27   1.0000      -9.864235      -268.4195 
  28   1.0000      -9.863706      -268.4051 
  29   1.0000      -9.863705      -268.4051 
  30   1.0000      -9.862379      -268.3690 
  31   1.0000      -9.862375      -268.3689 
  32   1.0000      -9.861559      -268.3467 
  33   1.0000      -9.861557      -268.3466 
  34   1.0000      -9.861339      -268.3407 
  35   1.0000      -9.861339      -268.3407 
  36   1.0000      -9.859906      -268.3017 
  37   1.0000      -9.859904      -268.3016 
  38   1.0000      -9.859260      -268.2841 
  39   1.0000      -9.859259      -268.2841 
  40   1.0000      -3.394988       -92.3823 
  41   1.0000      -3.394934       -92.3809 
  42   1.0000      -2.212328       -60.2005 
  43   1.0000      -2.212237       -60.1980 
  44   1.0000      -2.209420       -60.1214 
  45   1.0000      -2.208944       -60.1084 
  46   1.0000      -2.201636       -59.9096 
  47   1.0000      -2.201625       -59.9093 
  48   1.0000      -0.917078       -24.9550 
  49   1.0000      -0.909348       -24.7446 
  50   1.0000      -0.901835       -24.5402 
  51   1.0000      -0.901314       -24.5260 
  52   1.0000      -0.896016       -24.3818 
  53   1.0000      -0.895874       -24.3780 
  54   1.0000      -0.717656       -19.5284 
  55   1.0000      -0.713378       -19.4120 
  56   1.0000      -0.705410       -19.1952 
  57   1.0000      -0.705309       -19.1924 
  58   1.0000      -0.701221       -19.0812 
  59   1.0000      -0.701216       -19.0811 
  60   1.0000      -0.627843       -17.0845 
  61   1.0000      -0.627706       -17.0807 
  62   1.0000      -0.623212       -16.9585 
  63   1.0000      -0.623063       -16.9544 
  64   1.0000      -0.619601       -16.8602 
  65   1.0000      -0.619069       -16.8457 
  66   1.0000      -0.618965       -16.8429 
  67   1.0000      -0.618707       -16.8359 
  68   1.0000      -0.616589       -16.7782 
  69   1.0000      -0.616403       -16.7732 
  70   1.0000      -0.615720       -16.7546 
  71   1.0000      -0.615632       -16.7522 
  72   1.0000      -0.518325       -14.1043 
  73   1.0000      -0.499398       -13.5893 
  74   1.0000      -0.497602       -13.5404 
  75   1.0000      -0.496637       -13.5142 
  76   1.0000      -0.490762       -13.3543 
  77   1.0000      -0.490626       -13.3506 
  78   1.0000      -0.437882       -11.9154 
  79   1.0000      -0.427241       -11.6258 
  80   1.0000      -0.426291       -11.6000 
  81   1.0000      -0.424651       -11.5553 
  82   1.0000      -0.420914       -11.4537 
  83   1.0000      -0.420826       -11.4512 
  84   1.0000      -0.416806       -11.3419 
  85   1.0000      -0.415573       -11.3083 
  86   1.0000      -0.407432       -11.0868 
  87   1.0000      -0.407344       -11.0844 
  88   1.0000      -0.402807       -10.9609 
  89   1.0000      -0.401984       -10.9386 
  90   1.0000      -0.400246       -10.8913 
  91   1.0000      -0.399761       -10.8780 
  92   1.0000      -0.397179       -10.8078 
  93   1.0000      -0.396908       -10.8004 
  94   1.0000      -0.396166       -10.7802 
  95   1.0000      -0.396094       -10.7783 
  96   1.0000      -0.368304       -10.0221 
  97   1.0000      -0.365138        -9.9359 
  98   1.0000      -0.360368        -9.8061 
  99   1.0000      -0.357804        -9.7363 
 100   1.0000      -0.355628        -9.6771 
 101   1.0000      -0.352974        -9.6049 
 102   1.0000      -0.352863        -9.6019 
 103   1.0000      -0.352464        -9.5910 
 104   1.0000      -0.351083        -9.5535 
 105   1.0000      -0.349045        -9.4980 
 106   1.0000      -0.348998        -9.4967 
 107   1.0000      -0.346872        -9.4389 
 108   1.0000      -0.346682        -9.4337 
 109   1.0000      -0.344947        -9.3865 
 110   1.0000      -0.342287        -9.3141 
 111   1.0000      -0.341864        -9.3026 
 112   1.0000      -0.338366        -9.2074 
 113   1.0000      -0.337179        -9.1751 
 114   1.0000      -0.335221        -9.1218 
 115   1.0000      -0.324864        -8.8400 
 116   1.0000      -0.323016        -8.7897 
 117   1.0000      -0.322393        -8.7728 
 118   1.0000      -0.319490        -8.6938 
 119   1.0000      -0.317980        -8.6527 
 120   1.0000      -0.317400        -8.6369 
 121   1.0000      -0.316379        -8.6091 
 122   1.0000      -0.315060        -8.5732 
 123   1.0000      -0.314347        -8.5538 
 124   1.0000      -0.314082        -8.5466 
 125   1.0000      -0.310847        -8.4586 
 126   1.0000      -0.310343        -8.4449 
 127   1.0000      -0.308164        -8.3856 
 128   1.0000      -0.305261        -8.3066 
 129   1.0000      -0.303770        -8.2660 
 130   1.0000      -0.301972        -8.2171 
 131   1.0000      -0.300952        -8.1893 
 132   1.0000      -0.294615        -8.0169 
 133   1.0000      -0.294348        -8.0096 
 134   1.0000      -0.292350        -7.9552 
 135   1.0000      -0.290955        -7.9173 
 136   1.0000      -0.290450        -7.9036 
 137   1.0000      -0.289042        -7.8652 
 138   1.0000      -0.283136        -7.7045 
 139   1.0000      -0.277011        -7.5378 
 140   1.0000      -0.268911        -7.3174 
 141   1.0000      -0.263077        -7.1587 
 142   1.0000      -0.246546        -6.7088 
 143   1.0000      -0.245021        -6.6674 
 144   1.0000      -0.231108        -6.2888 
 145   1.0000      -0.228381        -6.2146 
 146   1.0000      -0.207345        -5.6421 
 147   1.0000      -0.203494        -5.5374 
 148   1.0000      -0.203200        -5.5294 
 149   1.0000      -0.199012        -5.4154 
 150   1.0000      -0.188776        -5.1369 
 151   1.0000      -0.188069        -5.1176 
 152   1.0000      -0.185280        -5.0417 
 153   1.0000      -0.176215        -4.7951 
 154   0.0000      -0.006996        -0.1904 
 155   0.0000       0.010761         0.2928 
 156   0.0000       0.015017         0.4086 
 157   0.0000       0.017831         0.4852 
 158   0.0000       0.021821         0.5938 
 159   0.0000       0.025969         0.7066 
 160   0.0000       0.037612         1.0235 
 161   0.0000       0.044578         1.2130 
 162   0.0000       0.045646         1.2421 
 163   0.0000       0.046376         1.2620 
 164   0.0000       0.049346         1.3428 
 165   0.0000       0.050588         1.3766 
 166   0.0000       0.052264         1.4222 
 167   0.0000       0.053185         1.4472 
 168   0.0000       0.059686         1.6241 
 169   0.0000       0.061421         1.6714 
 170   0.0000       0.063231         1.7206 
 171   0.0000       0.064475         1.7544 
 172   0.0000       0.070511         1.9187 
 173   0.0000       0.072566         1.9746 
 174   0.0000       0.073131         1.9900 
 175   0.0000       0.076369         2.0781 
 176   0.0000       0.080794         2.1985 
 177   0.0000       0.082167         2.2359 
 178   0.0000       0.082753         2.2518 
 179   0.0000       0.084120         2.2890 
 180   0.0000       0.086747         2.3605 
 181   0.0000       0.091705         2.4954 
 182   0.0000       0.094109         2.5608 
 183   0.0000       0.098117         2.6699 
 184   0.0000       0.098972         2.6932 
 185   0.0000       0.099914         2.7188 
 186   0.0000       0.102764         2.7963 
 187   0.0000       0.106210         2.8901 
 188   0.0000       0.106868         2.9080 
 189   0.0000       0.107011         2.9119 
 190   0.0000       0.110987         3.0201 
 191   0.0000       0.112946         3.0734 
 192   0.0000       0.114235         3.1085 
 193   0.0000       0.117141         3.1876 
 194   0.0000       0.119224         3.2442 
 195   0.0000       0.121329         3.3015 
 196   0.0000       0.122355         3.3295 
 197   0.0000       0.124546         3.3891 
 198   0.0000       0.126467         3.4414 
 199   0.0000       0.128683         3.5017 
 200   0.0000       0.128782         3.5043 
 201   0.0000       0.130789         3.5590 
 202   0.0000       0.130962         3.5637 
 203   0.0000       0.133639         3.6365 
 204   0.0000       0.134946         3.6721 
 205   0.0000       0.135833         3.6962 
 206   0.0000       0.138031         3.7560 
 207   0.0000       0.138747         3.7755 
 208   0.0000       0.140018         3.8101 
 209   0.0000       0.142285         3.8718 
 210   0.0000       0.143488         3.9045 
 211   0.0000       0.145305         3.9539 
 212   0.0000       0.147542         4.0148 
 213   0.0000       0.149746         4.0748 
 214   0.0000       0.149887         4.0786 
 215   0.0000       0.151658         4.1268 
 216   0.0000       0.154369         4.2006 
 217   0.0000       0.157369         4.2822 
 218   0.0000       0.157861         4.2956 
 219   0.0000       0.160182         4.3588 
 220   0.0000       0.163822         4.4578 
 221   0.0000       0.164327         4.4716 
 222   0.0000       0.165671         4.5081 
 223   0.0000       0.169801         4.6205 
 224   0.0000       0.171685         4.6718 
 225   0.0000       0.173962         4.7337 
 226   0.0000       0.177075         4.8185 
 227   0.0000       0.177273         4.8238 
 228   0.0000       0.183805         5.0016 
 229   0.0000       0.185035         5.0351 
 230   0.0000       0.190496         5.1837 
 231   0.0000       0.192044         5.2258 
 232   0.0000       0.195376         5.3165 
 233   0.0000       0.199728         5.4349 
 234   0.0000       0.201173         5.4742 
 235   0.0000       0.209309         5.6956 
 236   0.0000       0.212817         5.7911 
 237   0.0000       0.218377         5.9423 
 238   0.0000       0.224094         6.0979 
 239   0.0000       0.225806         6.1445 
 240   0.0000       0.228605         6.2207 
 241   0.0000       0.229550         6.2464 
 242   0.0000       0.231484         6.2990 
 243   0.0000       0.232955         6.3390 
 244   0.0000       0.239904         6.5281 
 245   0.0000       0.247803         6.7431 
 246   0.0000       0.251375         6.8403 
 247   0.0000       0.254049         6.9130 
 248   0.0000       0.256529         6.9805 
 249   0.0000       0.258665         7.0386 
 250   0.0000       0.260981         7.1017 
 251   0.0000       0.262069         7.1313 
 252   0.0000       0.266929         7.2635 
 253   0.0000       0.273906         7.4534 
 254   0.0000       0.276283         7.5181 
 255   0.0000       0.279300         7.6001 
 256   0.0000       0.283190         7.7060 
 257   0.0000       0.283718         7.7204 
 258   0.0000       0.288482         7.8500 
 259   0.0000       0.291376         7.9288 
 260   0.0000       0.293980         7.9996 
 261   0.0000       0.296956         8.0806 
 262   0.0000       0.297938         8.1073 
 263   0.0000       0.303568         8.2605 
 264   0.0000       0.304572         8.2878 
 265   0.0000       0.305199         8.3049 
 266   0.0000       0.307599         8.3702 
 267   0.0000       0.309474         8.4212 
 268   0.0000       0.312009         8.4902 
 269   0.0000       0.317807         8.6480 
 270   0.0000       0.320325         8.7165 
 271   0.0000       0.320761         8.7284 
 272   0.0000       0.321147         8.7389 
 273   0.0000       0.321244         8.7415 
 274   0.0000       0.324174         8.8212 
 275   0.0000       0.330619         8.9966 
 276   0.0000       0.336608         9.1596 
 277   0.0000       0.336682         9.1616 
 278   0.0000       0.338402         9.2084 
 279   0.0000       0.339581         9.2405 
 280   0.0000       0.342617         9.3231 
 281   0.0000       0.343683         9.3521 
 282   0.0000       0.351342         9.5605 
 283   0.0000       0.352377         9.5887 
 284   0.0000       0.353687         9.6243 
 285   0.0000       0.355542         9.6748 
 286   0.0000       0.357677         9.7329 
 287   0.0000       0.361613         9.8400 
 288   0.0000       0.362661         9.8685 
 289   0.0000       0.368058        10.0154 
 290   0.0000       0.371172        10.1001 
 291   0.0000       0.372134        10.1263 
 292   0.0000       0.376750        10.2519 
 293   0.0000       0.376914        10.2563 
 294   0.0000       0.382782        10.4160 
 295   0.0000       0.387200        10.5362 
 296   0.0000       0.387962        10.5570 
 297   0.0000       0.391125        10.6430 
 298   0.0000       0.394181        10.7262 
 299   0.0000       0.399729        10.8772 
 300   0.0000       0.400639        10.9019 
 301   0.0000       0.401522        10.9260 
 302   0.0000       0.405955        11.0466 
 303   0.0000       0.406460        11.0603 
 304   0.0000       0.410802        11.1785 
 305   0.0000       0.411965        11.2101 
 306   0.0000       0.412634        11.2283 
 307   0.0000       0.416564        11.3353 
 308   0.0000       0.419023        11.4022 
 309   0.0000       0.420057        11.4303 
 310   0.0000       0.422137        11.4869 
 311   0.0000       0.424093        11.5402 
 312   0.0000       0.424460        11.5501 
 313   0.0000       0.425095        11.5674 
 314   0.0000       0.426811        11.6141 
 315   0.0000       0.427062        11.6209 
 316   0.0000       0.431604        11.7445 
 317   0.0000       0.432155        11.7595 
 318   0.0000       0.433153        11.7867 
 319   0.0000       0.438222        11.9246 
 320   0.0000       0.439659        11.9637 
 321   0.0000       0.439924        11.9709 
 322   0.0000       0.441092        12.0027 
 323   0.0000       0.442582        12.0433 
 324   0.0000       0.443542        12.0694 
 325   0.0000       0.447886        12.1876 
 326   0.0000       0.450725        12.2649 
 327   0.0000       0.453155        12.3310 
 328   0.0000       0.454036        12.3549 
 329   0.0000       0.455853        12.4044 
 330   0.0000       0.459967        12.5163 
 331   0.0000       0.461106        12.5473 
 332   0.0000       0.461690        12.5632 
 333   0.0000       0.463166        12.6034 
 334   0.0000       0.466118        12.6837 
 335   0.0000       0.468787        12.7563 
 336   0.0000       0.468893        12.7592 
 337   0.0000       0.471004        12.8167 
 338   0.0000       0.474103        12.9010 
 339   0.0000       0.474236        12.9046 
 340   0.0000       0.478275        13.0145 
 341   0.0000       0.481578        13.1044 
 342   0.0000       0.484618        13.1871 
 343   0.0000       0.489996        13.3335 
 344   0.0000       0.490383        13.3440 
 345   0.0000       0.491439        13.3727 
 346   0.0000       0.493595        13.4314 
 347   0.0000       0.497565        13.5394 
 348   0.0000       0.501165        13.6374 
 349   0.0000       0.504560        13.7298 
 350   0.0000       0.511925        13.9302 
 351   0.0000       0.515474        14.0268 
 352   0.0000       0.518074        14.0975 
 353   0.0000       0.518520        14.1096 
 354   0.0000       0.521908        14.2018 
 355   0.0000       0.525413        14.2972 
 356   0.0000       0.528474        14.3805 
 357   0.0000       0.532672        14.4948 
 358   0.0000       0.536809        14.6073 
 359   0.0000       0.537245        14.6192 
 360   0.0000       0.537829        14.6351 
 361   0.0000       0.547529        14.8990 
 362   0.0000       0.547842        14.9075 
 363   0.0000       0.551459        15.0060 
 364   0.0000       0.557077        15.1588 
 365   0.0000       0.557609        15.1733 
 366   0.0000       0.567112        15.4319 
 367   0.0000       0.568770        15.4770 
 368   0.0000       0.573978        15.6187 
 369   0.0000       0.574804        15.6412 
 370   0.0000       0.580702        15.8017 
 371   0.0000       0.581535        15.8244 
 372   0.0000       0.589732        16.0474 
 373   0.0000       0.594189        16.1687 
 374   0.0000       0.595942        16.2164 
 375   0.0000       0.603979        16.4351 
 376   0.0000       0.606969        16.5165 
 377   0.0000       0.609370        16.5818 
 378   0.0000       0.611909        16.6509 
 379   0.0000       0.616734        16.7822 
 380   0.0000       0.629970        17.1424 
 381   0.0000       0.630747        17.1635 
 382   0.0000       0.632927        17.2228 
 383   0.0000       0.635736        17.2992 
 384   0.0000       0.636203        17.3120 
 385   0.0000       0.640145        17.4192 
 386   0.0000       0.641435        17.4543 
 387   0.0000       0.645111        17.5544 
 388   0.0000       0.648522        17.6472 
 389   0.0000       0.655668        17.8416 
 390   0.0000       0.660239        17.9660 
 391   0.0000       0.660378        17.9698 
 392   0.0000       0.664461        18.0809 
 393   0.0000       0.664699        18.0874 
 394   0.0000       0.668054        18.1787 
 395   0.0000       0.671861        18.2823 
 396   0.0000       0.675358        18.3774 
 397   0.0000       0.677710        18.4414 
 398   0.0000       0.679467        18.4892 
 399   0.0000       0.680253        18.5106 
 400   0.0000       0.684306        18.6209 
 401   0.0000       0.694754        18.9052 
 402   0.0000       0.695627        18.9290 
 403   0.0000       0.704387        19.1673 
 404   0.0000       0.705272        19.1914 
 405   0.0000       0.709923        19.3180 
 406   0.0000       0.718314        19.5463 
 407   0.0000       0.719815        19.5872 
 408   0.0000       0.721300        19.6276 
 409   0.0000       0.731360        19.9013 
 410   0.0000       0.742086        20.1932 
 411   0.0000       0.743180        20.2230 
 412   0.0000       0.756671        20.5901 
 413   0.0000       0.760459        20.6931 
 414   0.0000       0.764959        20.8156 
 415   0.0000       0.769656        20.9434 
 416   0.0000       0.773290        21.0423 
 417   0.0000       0.777624        21.1602 
 418   0.0000       0.790153        21.5012 
 419   0.0000       0.790936        21.5225 
 420   0.0000       0.797282        21.6952 
 421   0.0000       0.802350        21.8331 
[...]
      px      :     0.000054
      py      :    -0.000006
 57 H s       :    -0.000115  s :    -0.000115
      pz      :    -0.000007  p :     0.000059
      px      :     0.000076
      py      :    -0.000010
 58 C s       :     0.000969  s :     0.000969
      pz      :     0.004534  p :     0.006302
      px      :     0.000459
      py      :     0.001309
      dz2     :     0.000519  d :     0.001636
      dxz     :     0.000415
      dyz     :     0.000335
      dx2y2   :     0.000249
      dxy     :     0.000118
      f0      :     0.000044  f :     0.000104
      f+1     :     0.000006
      f-1     :     0.000006
      f+2     :     0.000030
      f-2     :     0.000015
      f+3     :     0.000001
      f-3     :     0.000002
 59 H s       :     0.000007  s :     0.000007
      pz      :     0.000108  p :     0.000177
      px      :     0.000007
      py      :     0.000061
 60 H s       :     0.001519  s :     0.001519
      pz      :     0.000108  p :     0.000170
      px      :     0.000009
      py      :     0.000053
 61 H s       :    -0.000041  s :    -0.000041
      pz      :     0.000081  p :     0.000128
      px      :     0.000021
      py      :     0.000025
 62 C s       :     0.001777  s :     0.001777
      pz      :     0.001846  p :     0.007096
      px      :     0.004757
      py      :     0.000492
      dz2     :     0.000123  d :     0.002029
      dxz     :     0.000514
      dyz     :     0.000891
      dx2y2   :     0.000183
      dxy     :     0.000317
      f0      :     0.000014  f :     0.000099
      f+1     :     0.000004
      f-1     :     0.000008
      f+2     :     0.000017
      f-2     :     0.000009
      f+3     :     0.000012
      f-3     :     0.000036
 63 H s       :     0.000101  s :     0.000101
      pz      :     0.000016  p :     0.000171
      px      :     0.000154
      py      :     0.000002
 64 H s       :     0.002330  s :     0.002330
      pz      :     0.000030  p :     0.000187
      px      :     0.000159
      py      :    -0.000002
 65 H s       :     0.000126  s :     0.000126
      pz      :     0.000034  p :     0.000166
      px      :     0.000097
      py      :     0.000035
 66 C s       :     0.001026  s :     0.001026
      pz      :     0.000620  p :     0.007619
      px      :     0.000826
      py      :     0.006173
      dz2     :     0.000212  d :     0.000944
      dxz     :     0.000221
      dyz     :     0.000077
      dx2y2   :     0.000485
      dxy     :    -0.000051
      f0      :     0.000006  f :     0.000088
      f+1     :    -0.000001
      f-1     :     0.000053
      f+2     :     0.000003
      f-2     :     0.000027
      f+3     :    -0.000010
      f-3     :     0.000010
 67 H s       :    -0.000439  s :    -0.000439
      pz      :     0.000003  p :     0.000162
      px      :    -0.000002
      py      :     0.000162
 68 H s       :     0.000994  s :     0.000994
      pz      :     0.000049  p :     0.000175
      px      :     0.000025
      py      :     0.000100
 69 H s       :    -0.000080  s :    -0.000080
      pz      :     0.000067  p :     0.000170
      px      :     0.000005
      py      :     0.000097
 70 C s       :     0.001066  s :     0.001066
      pz      :     0.004681  p :     0.008149
      px      :     0.003274
      py      :     0.000194
      dz2     :     0.000162  d :     0.000779
      dxz     :     0.000175
      dyz     :     0.000190
      dx2y2   :     0.000066
      dxy     :     0.000185
      f0      :     0.000006  f :     0.000095
      f+1     :     0.000031
      f-1     :     0.000005
      f+2     :     0.000008
      f-2     :     0.000026
      f+3     :     0.000011
      f-3     :     0.000009
 71 H s       :    -0.000105  s :    -0.000105
      pz      :     0.000093  p :     0.000172
      px      :     0.000047
      py      :     0.000032
 72 H s       :     0.000997  s :     0.000997
      pz      :     0.000066  p :     0.000179
      px      :     0.000098
      py      :     0.000015
 73 H s       :    -0.000383  s :    -0.000383
      pz      :     0.000096  p :     0.000156
      px      :     0.000057
      py      :     0.000003
 74 C s       :     0.000836  s :     0.000836
      pz      :     0.005012  p :     0.006938
      px      :     0.000640
      py      :     0.001286
      dz2     :     0.000169  d :     0.000966
      dxz     :     0.000596
      dyz     :     0.000003
      dx2y2   :     0.000118
      dxy     :     0.000080
      f0      :     0.000011  f :     0.000131
      f+1     :     0.000047
      f-1     :     0.000007
      f+2     :     0.000009
      f-2     :     0.000036
      f+3     :     0.000007
      f-3     :     0.000013
 75 H s       :    -0.000177  s :    -0.000177
      pz      :     0.000091  p :     0.000147
      px      :     0.000007
      py      :     0.000049
 76 H s       :     0.000755  s :     0.000755
      pz      :     0.000107  p :     0.000172
      px      :     0.000004
      py      :     0.000060
 77 H s       :    -0.000255  s :    -0.000255
      pz      :     0.000117  p :     0.000163
      px      :     0.000020
      py      :     0.000027
 78 C s       :     0.001880  s :     0.001880
      pz      :     0.001867  p :     0.008157
      px      :     0.005868
      py      :     0.000422
      dz2     :     0.000593  d :     0.002117
      dxz     :     0.000118
      dyz     :     0.000154
      dx2y2   :     0.001213
      dxy     :     0.000039
      f0      :     0.000041  f :     0.000131
      f+1     :     0.000033
      f-1     :     0.000008
      f+2     :     0.000023
      f-2     :     0.000016
      f+3     :     0.000017
      f-3     :    -0.000007
 79 H s       :     0.000131  s :     0.000131
      pz      :     0.000120  p :     0.000190
      px      :     0.000065
      py      :     0.000004
 80 H s       :     0.002335  s :     0.002335
      pz      :     0.000079  p :     0.000197
      px      :     0.000104
      py      :     0.000014
 81 H s       :    -0.000017  s :    -0.000017
      pz      :     0.000057  p :     0.000196
      px      :     0.000092
      py      :     0.000047
 82 C s       :     0.001615  s :     0.001615
      pz      :     0.001247  p :     0.008637
      px      :     0.000256
      py      :     0.007134
      dz2     :     0.000067  d :     0.001712
      dxz     :     0.000465
      dyz     :     0.000415
      dx2y2   :     0.000071
      dxy     :     0.000694
      f0      :     0.000010  f :     0.000122
      f+1     :     0.000004
      f-1     :    -0.000005
      f+2     :     0.000014
      f-2     :     0.000010
      f+3     :     0.000068
      f-3     :     0.000021
 83 H s       :    -0.000216  s :    -0.000216
      pz      :     0.000035  p :     0.000208
      px      :     0.000015
      py      :     0.000158
 84 H s       :     0.001874  s :     0.001874
      pz      :     0.000021  p :     0.000196
      px      :    -0.000002
      py      :     0.000177
 85 H s       :     0.000024  s :     0.000024
      pz      :     0.000023  p :     0.000194
      px      :     0.000003
      py      :     0.000168


                      *****************************
                      * MAYER POPULATION ANALYSIS *
                      *****************************

  NA   - Mulliken gross atomic population
  ZA   - Total nuclear charge
  QA   - Mulliken gross atomic charge
  VA   - Mayer's total valence
  BVA  - Mayer's bonded valence
  FA   - Mayer's free valence

  ATOM       NA         ZA         QA         VA         BVA        FA
  0 Fe    25.0078    26.0000     0.9922     6.3201     3.2049     3.1152
  1 O      8.5810     8.0000    -0.5810     1.8214     1.7948     0.0265
  2 O      8.4842     8.0000    -0.4842     2.0200     1.9698     0.0502
  3 O      8.4833     8.0000    -0.4833     2.0195     1.9692     0.0502
  4 C      5.6984     6.0000     0.3016     3.7593     3.7592     0.0002
  5 C      5.7498     6.0000     0.2502     3.8370     3.8369     0.0001
  6 C      5.8051     6.0000     0.1949     3.9244     3.9241     0.0003
  7 C      6.3738     6.0000    -0.3738     3.8743     3.8742     0.0001
  8 H      0.8893     1.0000     0.1107     0.9896     0.9896     0.0000
  9 H      0.8909     1.0000     0.1091     0.9807     0.9807     0.0000
 10 H      0.8660     1.0000     0.1340     0.9984     0.9984    -0.0000
 11 C      6.3806     6.0000    -0.3806     3.9030     3.9030     0.0000
 12 H      0.8634     1.0000     0.1366     1.0120     1.0120     0.0000
 13 H      0.8984     1.0000     0.1016     0.9782     0.9782     0.0000
 14 H      0.9029     1.0000     0.0971     1.0207     1.0207     0.0000
 15 C      6.3657     6.0000    -0.3657     3.8532     3.8532     0.0001
 16 H      0.8642     1.0000     0.1358     0.9999     0.9999    -0.0000
 17 H      0.8908     1.0000     0.1092     0.9760     0.9760     0.0000
 18 H      0.8876     1.0000     0.1124     0.9931     0.9931     0.0000
 19 C      6.3200     6.0000    -0.3200     3.8453     3.8452     0.0001
 20 H      0.8916     1.0000     0.1084     0.9833     0.9833     0.0000
 21 H      0.9000     1.0000     0.1000     0.9787     0.9787     0.0000
 22 H      0.8920     1.0000     0.1080     0.9886     0.9886     0.0000
 23 C      6.3875     6.0000    -0.3875     3.9123     3.9122     0.0002
 24 H      0.8731     1.0000     0.1269     0.9947     0.9947     0.0000
 25 H      0.8951     1.0000     0.1049     0.9781     0.9781     0.0000
 26 H      0.8913     1.0000     0.1087     0.9815     0.9814     0.0000
 27 C      6.3814     6.0000    -0.3814     3.8801     3.8800     0.0002
 28 H      0.8884     1.0000     0.1116     0.9823     0.9823     0.0000
 29 H      0.8944     1.0000     0.1056     0.9764     0.9764     0.0000
 30 H      0.8732     1.0000     0.1268     1.0038     1.0038     0.0000
 31 C      6.3519     6.0000    -0.3519     3.9098     3.9097     0.0001
 32 H      0.8716     1.0000     0.1284     0.9838     0.9838     0.0000
 33 H      0.8963     1.0000     0.1037     0.9752     0.9752     0.0000
 34 H      0.8911     1.0000     0.1089     1.0044     1.0044     0.0000
 35 C      6.3326     6.0000    -0.3326     3.8427     3.8426     0.0001
 36 H      0.8895     1.0000     0.1105     0.9859     0.9859     0.0000
 37 H      0.8976     1.0000     0.1024     0.9795     0.9794     0.0000
 38 H      0.8832     1.0000     0.1168     0.9850     0.9850     0.0000
 39 C      6.3538     6.0000    -0.3538     3.8645     3.8643     0.0002
 40 H      0.8794     1.0000     0.1206     0.9831     0.9831     0.0000
 41 H      0.8929     1.0000     0.1071     0.9774     0.9773     0.0000
 42 H      0.8887     1.0000     0.1113     0.9842     0.9842     0.0000
 43 Fe    25.0078    26.0000     0.9922     6.3201     3.2049     3.1152
 44 O      8.5810     8.0000    -0.5810     1.8213     1.7948     0.0265
 45 O      8.4842     8.0000    -0.4842     2.0200     1.9698     0.0502
 46 O      8.4833     8.0000    -0.4833     2.0194     1.9692     0.0502
 47 C      5.6983     6.0000     0.3017     3.7592     3.7591     0.0002
 48 C      5.7498     6.0000     0.2502     3.8371     3.8369     0.0001
 49 C      5.8051     6.0000     0.1949     3.9245     3.9242     0.0003
 50 C      6.3738     6.0000    -0.3738     3.8743     3.8742     0.0001
 51 H      0.8893     1.0000     0.1107     0.9896     0.9896     0.0000
 52 H      0.8909     1.0000     0.1091     0.9807     0.9807     0.0000
 53 H      0.8660     1.0000     0.1340     0.9984     0.9984    -0.0000
 54 C      6.3806     6.0000    -0.3806     3.9030     3.9030     0.0000
 55 H      0.8634     1.0000     0.1366     1.0120     1.0120     0.0000
 56 H      0.8984     1.0000     0.1016     0.9782     0.9782     0.0000
 57 H      0.9029     1.0000     0.0971     1.0207     1.0207     0.0000
 58 C      6.3658     6.0000    -0.3658     3.8532     3.8532     0.0001
 59 H      0.8642     1.0000     0.1358     0.9999     0.9999    -0.0000
 60 H      0.8908     1.0000     0.1092     0.9760     0.9760     0.0000
 61 H      0.8876     1.0000     0.1124     0.9931     0.9931     0.0000
 62 C      6.3200     6.0000    -0.3200     3.8453     3.8452     0.0001
 63 H      0.8916     1.0000     0.1084     0.9833     0.9833     0.0000
 64 H      0.9000     1.0000     0.1000     0.9787     0.9787     0.0000
 65 H      0.8920     1.0000     0.1080     0.9886     0.9886     0.0000
 66 C      6.3875     6.0000    -0.3875     3.9123     3.9122     0.0002
 67 H      0.8731     1.0000     0.1269     0.9947     0.9947     0.0000
 68 H      0.8951     1.0000     0.1049     0.9781     0.9781     0.0000
 69 H      0.8913     1.0000     0.1087     0.9815     0.9815     0.0000
 70 C      6.3814     6.0000    -0.3814     3.8802     3.8800     0.0002
 71 H      0.8884     1.0000     0.1116     0.9823     0.9823     0.0000
 72 H      0.8944     1.0000     0.1056     0.9764     0.9764     0.0000
 73 H      0.8732     1.0000     0.1268     1.0038     1.0038     0.0000
 74 C      6.3519     6.0000    -0.3519     3.9098     3.9097     0.0001
 75 H      0.8716     1.0000     0.1284     0.9838     0.9838     0.0000
 76 H      0.8963     1.0000     0.1037     0.9752     0.9752     0.0000
 77 H      0.8910     1.0000     0.1090     1.0044     1.0044     0.0000
 78 C      6.3326     6.0000    -0.3326     3.8427     3.8425     0.0001
 79 H      0.8895     1.0000     0.1105     0.9859     0.9859     0.0000
 80 H      0.8976     1.0000     0.1024     0.9795     0.9794     0.0000
 81 H      0.8832     1.0000     0.1168     0.9849     0.9849     0.0000
 82 C      6.3538     6.0000    -0.3538     3.8645     3.8643     0.0002
 83 H      0.8794     1.0000     0.1206     0.9831     0.9831     0.0000
 84 H      0.8929     1.0000     0.1071     0.9774     0.9773     0.0000
 85 H      0.8887     1.0000     0.1113     0.9842     0.9842     0.0000

  Mayer bond orders larger than 0.100000
B(  0-Fe,  1-O ) :   0.4619 B(  0-Fe,  2-O ) :   0.9214 B(  0-Fe,  3-O ) :   0.8945 
B(  0-Fe, 44-O ) :   0.4805 B(  1-O ,  4-C ) :   0.7983 B(  1-O , 43-Fe) :   0.4804 
B(  2-O ,  5-C ) :   0.9118 B(  3-O ,  6-C ) :   0.9479 B(  4-C ,  7-C ) :   0.9616 
B(  4-C , 11-C ) :   0.9729 B(  4-C , 15-C ) :   0.9680 B(  5-C , 19-C ) :   0.9497 
B(  5-C , 23-C ) :   0.9580 B(  5-C , 27-C ) :   0.9575 B(  6-C , 31-C ) :   0.9920 
B(  6-C , 35-C ) :   0.9495 B(  6-C , 39-C ) :   0.9457 B(  7-C ,  8-H ) :   0.9671 
B(  7-C ,  9-H ) :   0.9507 B(  7-C , 10-H ) :   0.9609 B( 11-C , 12-H ) :   0.9546 
B( 11-C , 13-H ) :   0.9520 B( 11-C , 14-H ) :   0.9693 B( 15-C , 16-H ) :   0.9559 
B( 15-C , 17-H ) :   0.9508 B( 15-C , 18-H ) :   0.9647 B( 19-C , 20-H ) :   0.9684 
B( 19-C , 21-H ) :   0.9647 B( 19-C , 22-H ) :   0.9703 B( 23-C , 24-H ) :   0.9698 
B( 23-C , 25-H ) :   0.9513 B( 23-C , 26-H ) :   0.9674 B( 27-C , 28-H ) :   0.9691 
B( 27-C , 29-H ) :   0.9511 B( 27-C , 30-H ) :   0.9640 B( 31-C , 32-H ) :   0.9624 
B( 31-C , 33-H ) :   0.9496 B( 31-C , 34-H ) :   0.9626 B( 35-C , 36-H ) :   0.9680 
B( 35-C , 37-H ) :   0.9579 B( 35-C , 38-H ) :   0.9676 B( 39-C , 40-H ) :   0.9716 
B( 39-C , 41-H ) :   0.9551 B( 39-C , 42-H ) :   0.9675 B( 43-Fe, 44-O ) :   0.4619 
B( 43-Fe, 45-O ) :   0.9214 B( 43-Fe, 46-O ) :   0.8945 B( 44-O , 47-C ) :   0.7983 
B( 45-O , 48-C ) :   0.9119 B( 46-O , 49-C ) :   0.9479 B( 47-C , 50-C ) :   0.9616 
B( 47-C , 54-C ) :   0.9728 B( 47-C , 58-C ) :   0.9680 B( 48-C , 62-C ) :   0.9498 
B( 48-C , 66-C ) :   0.9580 B( 48-C , 70-C ) :   0.9575 B( 49-C , 74-C ) :   0.9920 
B( 49-C , 78-C ) :   0.9495 B( 49-C , 82-C ) :   0.9458 B( 50-C , 51-H ) :   0.9671 
B( 50-C , 52-H ) :   0.9507 B( 50-C , 53-H ) :   0.9609 B( 54-C , 55-H ) :   0.9546 
B( 54-C , 56-H ) :   0.9519 B( 54-C , 57-H ) :   0.9693 B( 58-C , 59-H ) :   0.9559 
B( 58-C , 60-H ) :   0.9508 B( 58-C , 61-H ) :   0.9647 B( 62-C , 63-H ) :   0.9684 
B( 62-C , 64-H ) :   0.9647 B( 62-C , 65-H ) :   0.9703 B( 66-C , 67-H ) :   0.9698 
B( 66-C , 68-H ) :   0.9513 B( 66-C , 69-H ) :   0.9674 B( 70-C , 71-H ) :   0.9691 
B( 70-C , 72-H ) :   0.9511 B( 70-C , 73-H ) :   0.9640 B( 74-C , 75-H ) :   0.9624 
B( 74-C , 76-H ) :   0.9496 B( 74-C , 77-H ) :   0.9626 B( 78-C , 79-H ) :   0.9680 
B( 78-C , 80-H ) :   0.9579 B( 78-C , 81-H ) :   0.9676 B( 82-C , 83-H ) :   0.9716 
B( 82-C , 84-H ) :   0.9551 B( 82-C , 85-H ) :   0.9675 

-------
TIMINGS
-------

Total SCF time: 0 days 0 hours 1 min 54 sec 

Total time                  ....     114.825 sec
Sum of individual times     ....     104.106 sec  ( 90.7%)

Fock matrix formation       ....      55.890 sec  ( 48.7%)
  Split-RI-J                ....      24.963 sec  ( 44.7% of F)
  XC integration            ....      23.450 sec  ( 42.0% of F)
    Basis function eval.    ....       2.204 sec  (  9.4% of XC)
    Density eval.           ....       7.519 sec  ( 32.1% of XC)
    XC-Functional eval.     ....       0.369 sec  (  1.6% of XC)
    XC-Potential eval.      ....       4.677 sec  ( 19.9% of XC)
Diagonalization             ....      21.451 sec  ( 18.7%)
Density matrix formation    ....       1.244 sec  (  1.1%)
Population analysis         ....       1.634 sec  (  1.4%)
Initial guess               ....       1.391 sec  (  1.2%)
Orbital Transformation      ....       0.000 sec  (  0.0%)
Orbital Orthonormalization  ....       0.000 sec  (  0.0%)
DIIS solution               ....      19.643 sec  ( 17.1%)
Grid generation             ....       2.852 sec  (  2.5%)

Maximum memory used throughout the entire SCF-calculation: 356.0 MB

-------------------------   --------------------
FINAL SINGLE POINT ENERGY     -3924.328868636353
-------------------------   --------------------


                            ***************************************
                            *     ORCA property calculations      *
                            ***************************************

                                    ---------------------
                                    Active property flags
                                    ---------------------
   (+) Dipole Moment


------------------------------------------------------------------------------
                       ORCA ELECTRIC PROPERTIES CALCULATION
------------------------------------------------------------------------------

Dipole Moment Calculation                       ... on
Quadrupole Moment Calculation                   ... off
Polarizability Calculation                      ... off
GBWName                                         ... Fe2_tert-butoxide_6_HighSpin.gbw
Electron density                                ... Fe2_tert-butoxide_6_HighSpin.scfp
The origin for moment calculation is the CENTER OF MASS  = (19.013956,  4.151521 14.505128)

-------------
DIPOLE MOMENT
-------------
                                X             Y             Z
Electronic contribution:     -0.00141      -0.00145       0.00013
Nuclear contribution   :      0.00145       0.00153      -0.00016
                        -----------------------------------------
Total Dipole Moment    :      0.00004       0.00008      -0.00003
                        -----------------------------------------
Magnitude (a.u.)       :      0.00010
Magnitude (Debye)      :      0.00025



--------------------
Rotational spectrum 
--------------------
 
Rotational constants in cm-1:     0.004895     0.003291     0.002885 
Rotational constants in MHz :   146.756375    98.666265    86.500147 

 Dipole components along the rotational axes: 
x,y,z [a.u.] :    -0.000077     0.000057    -0.000027 
x,y,z [Debye]:    -0.000195     0.000145    -0.000069 

 

Timings for individual modules:

Sum of individual times         ...      142.839 sec (=   2.381 min)
GTO integral calculation        ...       18.137 sec (=   0.302 min)  12.7 %
SCF iterations                  ...      124.702 sec (=   2.078 min)  87.3 %
                             ****ORCA TERMINATED NORMALLY****
TOTAL RUN TIME: 0 days 0 hours 2 minutes 37 seconds 696 msec
