
                                 *****************
                                 * O   R   C   A *
                                 *****************

                                            #,                                       
                                            ###                                      
                                            ####                                     
                                            #####                                    
                                            ######                                   
                                           ########,                                 
                                     ,,################,,,,,                         
                               ,,#################################,,                 
                          ,,##########################################,,             
                       ,#########################################, ''#####,          
                    ,#############################################,,   '####,        
                  ,##################################################,,,,####,       
                ,###########''''           ''''###############################       
              ,#####''   ,,,,##########,,,,          '''####'''          '####       
            ,##' ,,,,###########################,,,                        '##       
           ' ,,###''''                  '''############,,,                           
         ,,##''                                '''############,,,,        ,,,,,,###''
      ,#''                                            '''#######################'''  
     '                                                          ''''####''''         
             ,#######,   #######,   ,#######,      ##                                
            ,#'     '#,  ##    ##  ,#'     '#,    #''#        ######   ,####,        
            ##       ##  ##   ,#'  ##            #'  '#       #        #'  '#        
            ##       ##  #######   ##           ,######,      #####,   #    #        
            '#,     ,#'  ##    ##  '#,     ,#' ,#      #,         ##   #,  ,#        
             '#######'   ##     ##  '#######'  #'      '#     #####' # '####'        



                  #######################################################
                  #                        -***-                        #
                  #          Department of theory and spectroscopy      #
                  #    Directorship and core code : Frank Neese         #
                  #        Max Planck Institute fuer Kohlenforschung    #
                  #                Kaiser Wilhelm Platz 1               #
                  #                 D-45470 Muelheim/Ruhr               #
                  #                      Germany                        #
                  #                                                     #
                  #                  All rights reserved                #
                  #                        -***-                        #
                  #######################################################


                         Program Version 5.0.3 -  RELEASE  -


 With contributions from (in alphabetic order):
   Daniel Aravena         : Magnetic Suceptibility
   Michael Atanasov       : Ab Initio Ligand Field Theory (pilot matlab implementation)
   Alexander A. Auer      : GIAO ZORA, VPT2 properties, NMR spectrum
   Ute Becker             : Parallelization
   Giovanni Bistoni       : ED, misc. LED, open-shell LED, HFLD
   Martin Brehm           : Molecular dynamics
   Dmytro Bykov           : SCF Hessian
   Vijay G. Chilkuri      : MRCI spin determinant printing, contributions to CSF-ICE
   Dipayan Datta          : RHF DLPNO-CCSD density
   Achintya Kumar Dutta   : EOM-CC, STEOM-CC
   Dmitry Ganyushin       : Spin-Orbit,Spin-Spin,Magnetic field MRCI
   Miquel Garcia          : C-PCM and meta-GGA Hessian, CC/C-PCM, Gaussian charge scheme
   Yang Guo               : DLPNO-NEVPT2, F12-NEVPT2, CIM, IAO-localization
   Andreas Hansen         : Spin unrestricted coupled pair/coupled cluster methods
   Benjamin Helmich-Paris : MC-RPA, TRAH-SCF, COSX integrals
   Lee Huntington         : MR-EOM, pCC
   Robert Izsak           : Overlap fitted RIJCOSX, COSX-SCS-MP3, EOM
   Marcus Kettner         : VPT2
   Christian Kollmar      : KDIIS, OOCD, Brueckner-CCSD(T), CCSD density, CASPT2, CASPT2-K
   Simone Kossmann        : Meta GGA functionals, TD-DFT gradient, OOMP2, MP2 Hessian
   Martin Krupicka        : Initial AUTO-CI
   Lucas Lang             : DCDCAS
   Marvin Lechner         : AUTO-CI (C++ implementation), FIC-MRCC
   Dagmar Lenk            : GEPOL surface, SMD
   Dimitrios Liakos       : Extrapolation schemes; Compound Job, initial MDCI parallelization
   Dimitrios Manganas     : Further ROCIS development; embedding schemes
   Dimitrios Pantazis     : SARC Basis sets
   Anastasios Papadopoulos: AUTO-CI, single reference methods and gradients
   Taras Petrenko         : DFT Hessian,TD-DFT gradient, ASA, ECA, R-Raman, ABS, FL, XAS/XES, NRVS
   Peter Pinski           : DLPNO-MP2, DLPNO-MP2 Gradient
   Christoph Reimann      : Effective Core Potentials
   Marius Retegan         : Local ZFS, SOC
   Christoph Riplinger    : Optimizer, TS searches, QM/MM, DLPNO-CCSD(T), (RO)-DLPNO pert. Triples
   Tobias Risthaus        : Range-separated hybrids, TD-DFT gradient, RPA, STAB
   Michael Roemelt        : Original ROCIS implementation
   Masaaki Saitow         : Open-shell DLPNO-CCSD energy and density
   Barbara Sandhoefer     : DKH picture change effects
   Avijit Sen             : IP-ROCIS
   Kantharuban Sivalingam : CASSCF convergence, NEVPT2, FIC-MRCI
   Bernardo de Souza      : ESD, SOC TD-DFT
   Georgi Stoychev        : AutoAux, RI-MP2 NMR, DLPNO-MP2 response
   Willem Van den Heuvel  : Paramagnetic NMR
   Boris Wezisla          : Elementary symmetry handling
   Frank Wennmohs         : Technical directorship


 We gratefully acknowledge several colleagues who have allowed us to
 interface, adapt or use parts of their codes:
   Stefan Grimme, W. Hujo, H. Kruse, P. Pracht,  : VdW corrections, initial TS optimization,
                  C. Bannwarth, S. Ehlert          DFT functionals, gCP, sTDA/sTD-DF
   Ed Valeev, F. Pavosevic, A. Kumar             : LibInt (2-el integral package), F12 methods
   Garnet Chan, S. Sharma, J. Yang, R. Olivares  : DMRG
   Ulf Ekstrom                                   : XCFun DFT Library
   Mihaly Kallay                                 : mrcc  (arbitrary order and MRCC methods)
   Jiri Pittner, Ondrej Demel                    : Mk-CCSD
   Frank Weinhold                                : gennbo (NPA and NBO analysis)
   Christopher J. Cramer and Donald G. Truhlar   : smd solvation model
   Lars Goerigk                                  : TD-DFT with DH, B97 family of functionals
   V. Asgeirsson, H. Jonsson                     : NEB implementation
   FAccTs GmbH                                   : IRC, NEB, NEB-TS, DLPNO-Multilevel, CI-OPT
                                                   MM, QMMM, 2- and 3-layer-ONIOM, Crystal-QMMM,
                                                   LR-CPCM, SF, NACMEs, symmetry and pop. for TD-DFT,
                                                   nearIR, NL-DFT gradient (VV10), updates on ESD,
                                                   ML-optimized integration grids
   S Lehtola, MJT Oliveira, MAL Marques          : LibXC Library
   Liviu Ungur et al                             : ANISO software


 Your calculation uses the libint2 library for the computation of 2-el integrals
 For citations please refer to: http://libint.valeyev.net

 Your ORCA version has been built with support for libXC version: 5.1.0
 For citations please refer to: https://tddft.org/programs/libxc/

 This ORCA versions uses:
   CBLAS   interface :  Fast vector & matrix operations
   LAPACKE interface :  Fast linear algebra routines
   SCALAPACK package :  Parallel linear algebra routines
   Shared memory     :  Shared parallel matrices
   BLAS/LAPACK       :  OpenBLAS 0.3.15  USE64BITINT DYNAMIC_ARCH NO_AFFINITY Zen SINGLE_THREADED
        Core in use  :  Zen
   Copyright (c) 2011-2014, The OpenBLAS Project


================================================================================

----- Orbital basis set information -----
Your calculation utilizes the basis: def2-TZVP
   F. Weigend and R. Ahlrichs, Phys. Chem. Chem. Phys. 7, 3297 (2005).

----- AuxJ basis set information -----
Your calculation utilizes the auxiliary basis: def2/J
   F. Weigend, Phys. Chem. Chem. Phys. 8, 1057 (2006).

================================================================================
                                        WARNINGS
                       Please study these warnings very carefully!
================================================================================


WARNING: your system is open-shell and RHF/RKS was chosen
  ===> : WILL SWITCH to UHF/UKS


INFO   : the flag for use of the SHARK integral package has been found!

================================================================================
                                       INPUT FILE
================================================================================
NAME = Fe2_tert-butoxide_6_LowSpin.inp
|  1> ! PBE def2-TZVP
|  2> %pal nprocs 32 end
|  3> %maxcore 3000
|  4> 
|  5> * xyz 0 3
|  6>   Fe  9.76415305920921      3.35895604330310      6.82993191004458
|  7>   O   9.42463739535867      1.48325135532178      6.89575066696449
|  8>   O   11.05609483685766      4.31693716144181      6.06868424439532
|  9>   O   8.33755387516358      4.37428040485539      6.57797982985061
| 10>   C   8.78659630465014      0.60387378074865      5.95413013120630
| 11>   C   11.04455046624725      5.28506627624781      5.04073399646924
| 12>   C   7.08984718049437      4.47726628573373      7.23876604419907
| 13>   C   9.61702432899846     -0.66630786360017      5.84154788384393
| 14>   H   10.61930583355190     -0.44136539246948      5.47299725570021
| 15>   H   9.14644257090398     -1.35946055485893      5.14076460706546
| 16>   H   9.69866748438949     -1.16184965043568      6.81067852388536
| 17>   C   7.38650235001995      0.26174906273363      6.44258139145277
| 18>   H   7.43531875440584     -0.14005486954374      7.45508046187438
| 19>   H   6.93203607809408     -0.48174848237707      5.78346125323777
| 20>   H   6.74444471639177      1.14334141013755      6.44479707552595
| 21>   C   8.73509199941363      1.31446584602606      4.61038761952505
| 22>   H   8.17296494578990      2.24837060649245      4.68181517194385
| 23>   H   8.24555044867451      0.68215350632224      3.86631955594433
| 24>   H   9.74344126571825      1.54051481531418      4.25503895950101
| 25>   C   12.49216183339244      5.38733959292063      4.56459530774453
| 26>   H   13.14376358432474      5.68234281266057      5.38982231978883
| 27>   H   12.58567035137138      6.12864980022168      3.76695146209734
| 28>   H   12.83392668155810      4.42184997684855      4.18549295324403
| 29>   C   10.58603959427914      6.62589439623938      5.60655933534859
| 30>   H   9.56507368002015      6.54532249327897      5.98149712457755
| 31>   H   10.61742781103744      7.40359302308660      4.83884405201260
| 32>   H   11.23957182319143      6.93052126981601      6.42760651844465
| 33>   C   10.14965593101293      4.86242128836304      3.88024367955229
| 34>   H   10.48105485608234      3.90174094008852      3.47827687967829
| 35>   H   10.19068406351105      5.59914944727505      3.07388973171923
| 36>   H   9.11353371556823      4.77192451695365      4.21009202860955
| 37>   C   6.98477778639991      3.52572781565133      8.42481962581497
| 38>   H   7.12840442136328      2.48804407348333      8.12296001028700
| 39>   H   6.00189783615351      3.61062378483756      8.89449697611866
| 40>   H   7.73625179582352      3.76607829131636      9.17963008834518
| 41>   C   5.99945059089324      4.18001459097904      6.21322796030677
| 42>   H   6.09978672862760      4.85067603397733      5.35744397948547
| 43>   H   5.00773790058057      4.32052009545223      6.65014530662486
| 44>   H   6.07140447680541      3.15242062989775      5.85299271728046
| 45>   C   6.95809857119518      5.92027351658292      7.72053483069669
| 46>   H   7.75610874359445      6.16029621059798      8.42589982240923
| 47>   H   5.99773067739273      6.07842307988394      8.21780701012691
| 48>   H   7.02769905599623      6.60897033834718      6.87609165960195
| 49>   Fe  10.35917655299274      1.03470736595198      8.52161005584055
| 50>   O   10.69871106557219      2.91039415722384      8.45578389035947
| 51>   O   9.06724336095191      0.07676360706954      9.28291096663669
| 52>   O   11.78583077568297      0.01947952086791      8.77356852896706
| 53>   C   11.33706986226610      3.78967216735533      9.39728036801001
| 54>   C   9.07876727174766     -0.89136033125767     10.31085775412042
| 55>   C   13.03363898664456     -0.08314895426917      8.11294476317126
| 56>   C   10.50703770287382      5.06010366211230      9.50970982823310
| 57>   H   9.50471629577036      4.83553495923379      9.87836690891943
| 58>   H   10.97789073244365      5.75321129312944     10.21034872409304
| 59>   H   10.42547659625545      5.55551137653973      8.54049629603061
| 60>   C   12.73723920332485      4.13129848830931      8.90867074812922
| 61>   H   12.68845931780080      4.53288980914078      7.89608366689539
| 62>   H   13.19197306153412      4.87482731583929      9.56758016790520
| 63>   H   13.37904047586616      3.24952023148474      8.90662199632122
| 64>   C   11.38848908020065      3.07924400998671     10.74111033100261
| 65>   H   11.95033024210742      2.14515463309798     10.66977383693463
| 66>   H   11.87827296390168      3.71152013082610     11.48505015926635
| 67>   H   10.38009221753489      2.85355998137887     11.09656417176630
| 68>   C   7.63113103896756     -0.99375998080943     10.78690310155894
| 69>   H   6.97960991943810     -1.28876783862241      9.96161219348871
| 70>   H   7.53761947578983     -1.73511527352271     11.58450440812895
| 71>   H   7.28926820489078     -0.02831421881547     11.16602442799195
| 72>   C   9.53744747464570     -2.23212673119353      9.74501589835675
| 73>   H   10.55843399927221     -2.15143436451122      9.37013418325313
| 74>   H   9.50608398333594     -3.00985467897641     10.51269946709923
| 75>   H   8.88398693528362     -2.53678269382410      8.92391995519839
| 76>   C   9.97356456699740     -0.46869057744337     11.47141074584114
| 77>   H   9.64202615016041      0.49190363664407     11.87346108532134
| 78>   H   9.93262612095681     -1.20550026596860     12.27769452583801
| 79>   H   11.00968426256348     -0.37801124121117     11.14160026072450
| 80>   C   13.13881230455734      0.86878827536460      6.92721469398430
| 81>   H   12.99498676942282      1.90634198629926      7.22939704086302
| 82>   H   14.12177613525118      0.78418832366606      6.45765492649673
| 83>   H   12.38750037054237      0.62854217172780      6.17219123890334
| 84>   C   14.12378339102888      0.21397649423482      9.13879588957824
| 85>   H   14.02342061694602     -0.45700807905305      9.99432721166741
| 86>   H   15.11559086106682      0.07380593983909      8.70197974981706
| 87>   H   14.05160120277829      1.24143477858937      9.49939635896293
| 88>   C   13.16566596386030     -1.52596803929197      7.63075159238174
| 89>   H   12.36783734361808     -1.76589076136004      6.92515349682090
| 90>   H   14.12616522548503     -1.68385042051668      7.13365760633596
| 91>   H   13.09596551315994     -2.21489762541892      8.47499881623841
| 92> *
| 93> 
| 94>                          ****END OF INPUT****
================================================================================

                       ****************************
                       * Single Point Calculation *
                       ****************************

---------------------------------
CARTESIAN COORDINATES (ANGSTROEM)
---------------------------------
  Fe     9.764153    3.358956    6.829932
  O      9.424637    1.483251    6.895751
  O     11.056095    4.316937    6.068684
  O      8.337554    4.374280    6.577980
  C      8.786596    0.603874    5.954130
  C     11.044550    5.285066    5.040734
  C      7.089847    4.477266    7.238766
  C      9.617024   -0.666308    5.841548
  H     10.619306   -0.441365    5.472997
  H      9.146443   -1.359461    5.140765
  H      9.698667   -1.161850    6.810679
  C      7.386502    0.261749    6.442581
  H      7.435319   -0.140055    7.455080
  H      6.932036   -0.481748    5.783461
  H      6.744445    1.143341    6.444797
  C      8.735092    1.314466    4.610388
  H      8.172965    2.248371    4.681815
  H      8.245550    0.682154    3.866320
  H      9.743441    1.540515    4.255039
  C     12.492162    5.387340    4.564595
  H     13.143764    5.682343    5.389822
  H     12.585670    6.128650    3.766951
  H     12.833927    4.421850    4.185493
  C     10.586040    6.625894    5.606559
  H      9.565074    6.545322    5.981497
  H     10.617428    7.403593    4.838844
  H     11.239572    6.930521    6.427607
  C     10.149656    4.862421    3.880244
  H     10.481055    3.901741    3.478277
  H     10.190684    5.599149    3.073890
  H      9.113534    4.771925    4.210092
  C      6.984778    3.525728    8.424820
  H      7.128404    2.488044    8.122960
  H      6.001898    3.610624    8.894497
  H      7.736252    3.766078    9.179630
  C      5.999451    4.180015    6.213228
  H      6.099787    4.850676    5.357444
  H      5.007738    4.320520    6.650145
  H      6.071404    3.152421    5.852993
  C      6.958099    5.920274    7.720535
  H      7.756109    6.160296    8.425900
  H      5.997731    6.078423    8.217807
  H      7.027699    6.608970    6.876092
  Fe    10.359177    1.034707    8.521610
  O     10.698711    2.910394    8.455784
  O      9.067243    0.076764    9.282911
  O     11.785831    0.019480    8.773569
  C     11.337070    3.789672    9.397280
  C      9.078767   -0.891360   10.310858
  C     13.033639   -0.083149    8.112945
  C     10.507038    5.060104    9.509710
  H      9.504716    4.835535    9.878367
  H     10.977891    5.753211   10.210349
  H     10.425477    5.555511    8.540496
  C     12.737239    4.131298    8.908671
  H     12.688459    4.532890    7.896084
  H     13.191973    4.874827    9.567580
  H     13.379040    3.249520    8.906622
  C     11.388489    3.079244   10.741110
  H     11.950330    2.145155   10.669774
  H     11.878273    3.711520   11.485050
  H     10.380092    2.853560   11.096564
  C      7.631131   -0.993760   10.786903
  H      6.979610   -1.288768    9.961612
  H      7.537619   -1.735115   11.584504
  H      7.289268   -0.028314   11.166024
  C      9.537447   -2.232127    9.745016
  H     10.558434   -2.151434    9.370134
  H      9.506084   -3.009855   10.512699
  H      8.883987   -2.536783    8.923920
  C      9.973565   -0.468691   11.471411
  H      9.642026    0.491904   11.873461
  H      9.932626   -1.205500   12.277695
  H     11.009684   -0.378011   11.141600
  C     13.138812    0.868788    6.927215
  H     12.994987    1.906342    7.229397
  H     14.121776    0.784188    6.457655
  H     12.387500    0.628542    6.172191
  C     14.123783    0.213976    9.138796
  H     14.023421   -0.457008    9.994327
  H     15.115591    0.073806    8.701980
  H     14.051601    1.241435    9.499396
  C     13.165666   -1.525968    7.630752
  H     12.367837   -1.765891    6.925153
  H     14.126165   -1.683850    7.133658
  H     13.095966   -2.214898    8.474999

----------------------------
CARTESIAN COORDINATES (A.U.)
----------------------------
  NO LB      ZA    FRAG     MASS         X           Y           Z
   0 Fe   26.0000    0    55.850   18.451575    6.347507   12.906701
   1 O     8.0000    0    15.999   17.809984    2.802939   13.031080
   2 O     8.0000    0    15.999   20.892991    8.157829   11.468151
   3 O     8.0000    0    15.999   15.755693    8.266192   12.430580
   4 C     6.0000    0    12.011   16.604261    1.141156   11.251675
   5 C     6.0000    0    12.011   20.871176    9.987328    9.525607
   6 C     6.0000    0    12.011   13.397870    8.460807   13.679285
   7 C     6.0000    0    12.011   18.173542   -1.259139   11.038926
   8 H     1.0000    0     1.008   20.067580   -0.834060   10.342466
   9 H     1.0000    0     1.008   17.284272   -2.569008    9.714637
  10 H     1.0000    0     1.008   18.327825   -2.195578   12.870317
  11 C     6.0000    0    12.011   13.958467    0.494634   12.174714
  12 H     1.0000    0     1.008   14.050716   -0.264665   14.088060
  13 H     1.0000    0     1.008   13.099650   -0.910373   10.929158
  14 H     1.0000    0     1.008   12.745153    2.160602   12.178901
  15 C     6.0000    0    12.011   16.506932    2.483980    8.712370
  16 H     1.0000    0     1.008   15.444665    4.248805    8.847348
  17 H     1.0000    0     1.008   15.581832    1.289083    7.306285
  18 H     1.0000    0     1.008   18.412436    2.911151    8.040858
  19 C     6.0000    0    12.011   23.606765   10.180596    8.625835
  20 H     1.0000    0     1.008   24.838114   10.738072   10.185288
  21 H     1.0000    0     1.008   23.783470   11.581470    7.118507
  22 H     1.0000    0     1.008   24.252607    8.356085    7.909435
  23 C     6.0000    0    12.011   20.004716   12.521126   10.594862
  24 H     1.0000    0     1.008   18.075370   12.368867   11.303391
  25 H     1.0000    0     1.008   20.064031   13.990763    9.144090
  26 H     1.0000    0     1.008   21.239713   13.096787   12.146416
  27 C     6.0000    0    12.011   19.180070    9.188645    7.332598
  28 H     1.0000    0     1.008   19.806323    7.373222    6.572991
  29 H     1.0000    0     1.008   19.257602   10.580859    5.808810
  30 H     1.0000    0     1.008   17.222083    9.017630    7.955921
  31 C     6.0000    0    12.011   13.199317    6.662660   15.920602
  32 H     1.0000    0     1.008   13.470732    4.701722   15.350170
  33 H     1.0000    0     1.008   11.341943    6.823090   16.808163
  34 H     1.0000    0     1.008   14.619397    7.116857   17.346987
  35 C     6.0000    0    12.011   11.337319    7.899083   11.741299
  36 H     1.0000    0     1.008   11.526926    9.166449   10.124102
  37 H     1.0000    0     1.008    9.463253    8.164600   12.566953
  38 H     1.0000    0     1.008   11.473292    5.957212   11.060553
  39 C     6.0000    0    12.011   13.148901   11.187696   14.589696
  40 H     1.0000    0     1.008   14.656921   11.641273   15.922643
  41 H     1.0000    0     1.008   11.334068   11.486555   15.529405
  42 H     1.0000    0     1.008   13.280427   12.489144   12.993930
  43 Fe   26.0000    0    55.850   19.576007    1.955314   16.103509
  44 O     8.0000    0    15.999   20.217634    5.499848   15.979116
  45 O     8.0000    0    15.999   17.134607    0.145062   17.542159
  46 O     8.0000    0    15.999   22.271992    0.036811   16.579642
  47 C     6.0000    0    12.011   21.423957    7.161443   17.758286
  48 C     6.0000    0    12.011   17.156384   -1.684427   19.484697
  49 C     6.0000    0    12.011   24.630008   -0.157129   15.331244
  50 C     6.0000    0    12.011   19.855424    9.562210   17.970747
  51 H     1.0000    0     1.008   17.961311    9.137837   18.667408
  52 H     1.0000    0     1.008   20.745207   10.871994   19.294763
  53 H     1.0000    0     1.008   19.701296   10.498395   16.139199
  54 C     6.0000    0    12.011   24.069894    7.807023   16.834948
  55 H     1.0000    0     1.008   23.977713    8.565920   14.921436
  56 H     1.0000    0     1.008   24.929216    9.212089   18.080106
  57 H     1.0000    0     1.008   25.282722    6.140703   16.831076
  58 C     6.0000    0    12.011   21.521125    5.818928   20.297757
  59 H     1.0000    0     1.008   22.582851    4.053755   20.162950
  60 H     1.0000    0     1.008   22.446683    7.013757   21.703599
  61 H     1.0000    0     1.008   19.615532    5.392447   20.969467
  62 C     6.0000    0    12.011   14.420748   -1.877934   20.384293
  63 H     1.0000    0     1.008   13.189551   -2.435418   18.824719
  64 H     1.0000    0     1.008   14.244037   -3.278893   21.891541
  65 H     1.0000    0     1.008   13.774721   -0.053506   21.100728
  66 C     6.0000    0    12.011   18.023164   -4.218108   18.415411
  67 H     1.0000    0     1.008   19.952549   -4.065622   17.706987
  68 H     1.0000    0     1.008   17.963895   -5.687801   19.866123
  69 H     1.0000    0     1.008   16.788302   -4.793825   16.863765
  70 C     6.0000    0    12.011   18.847306   -0.885697   21.677825
  71 H     1.0000    0     1.008   18.220789    0.929563   22.437590
  72 H     1.0000    0     1.008   18.769943   -2.278065   23.201480
  73 H     1.0000    0     1.008   20.805288   -0.714338   21.054573
  74 C     6.0000    0    12.011   24.828757    1.641772   13.090539
  75 H     1.0000    0     1.008   24.556966    3.602464   13.661581
  76 H     1.0000    0     1.008   26.686289    1.481901   12.203199
  77 H     1.0000    0     1.008   23.408983    1.187773   11.663751
  78 C     6.0000    0    12.011   26.690083    0.404357   17.269821
  79 H     1.0000    0     1.008   26.500424   -0.863620   18.886541
  80 H     1.0000    0     1.008   28.564327    0.139473   16.444359
  81 H     1.0000    0     1.008   26.553678    2.345972   17.951258
  82 C     6.0000    0    12.011   24.879503   -2.883662   14.420031
  83 H     1.0000    0     1.008   23.371825   -3.337050   13.086644
  84 H     1.0000    0     1.008   26.694584   -3.182016   13.480659
  85 H     1.0000    0     1.008   24.747788   -4.185550   16.015427

--------------------------------
INTERNAL COORDINATES (ANGSTROEM)
--------------------------------
 Fe     0   0   0     0.000000000000     0.00000000     0.00000000
 O      1   0   0     1.907320390306     0.00000000     0.00000000
 O      1   2   0     1.779421082262   132.33364748     0.00000000
 O      1   2   3     1.769053035326   115.20066581   138.67716695
 C      2   1   3     1.437724099212   131.14012135   277.40495307
 C      3   1   2     1.412122150396   132.42160177   116.51161622
 C      4   1   2     1.415632900386   133.31696898    53.28559545
 C      5   2   1     1.521724967162   108.47034688   135.87373083
 H      8   5   2     1.091328041972   110.73987598   298.60360428
 H      8   5   2     1.092247703345   110.00254650   179.23724653
 H      8   5   2     1.091531705810   110.73666998    59.57665361
 C      5   2   1     1.521807161931   109.60809008   255.70637902
 H     12   5   2     1.090405341575   109.85794785   305.66867030
 H     12   5   2     1.092596699841   110.00117587   185.49558396
 H     12   5   2     1.090618164693   111.13398090    66.13525366
 C      5   2   1     1.520933172231   107.93269840    16.64525958
 H     16   5   2     1.092367530313   111.04426279   300.29514620
 H     16   5   2     1.092294423717   110.27671344   180.63219965
 H     16   5   2     1.092766694933   110.65236852    60.99761235
 C      6   3   1     1.527333150459   105.37251636   197.52885115
 H     20   6   3     1.092067471763   110.36751387   300.73834764
 H     20   6   3     1.092941156185   110.73372376   180.58361420
 H     20   6   3     1.092104393074   110.21992158    60.35117375
 C      6   3   1     1.525847496046   109.57052974    79.25382304
 H     24   6   3     1.090615227941   110.11289871   297.49256364
 H     24   6   3     1.093246143656   110.85924402   177.14837663
 H     24   6   3     1.092712397295   110.11397363    57.45866152
 C      6   3   1     1.525189427787   111.63527545   316.57851058
 H     28   6   3     1.092844585153   110.21453864   302.19795491
 H     28   6   3     1.093004289551   110.64193825   182.76009178
 H     28   6   3     1.091118162414   110.49560850    62.78116986
 C      7   4   1     1.524200818818   112.24469675     1.31364765
 H     32   7   4     1.090199700292   111.69560455   301.90689392
 H     32   7   4     1.092637696388   110.36475514   181.55777690
 H     32   7   4     1.091888443174   110.67471599    62.37330931
 C      7   4   1     1.526123079624   107.57139956   239.40937802
 H     36   7   4     1.091888425385   109.96159447   304.32004705
 H     36   7   4     1.092763755085   110.77465169   184.35964196
 H     36   7   4     1.091281879657   110.98503335    64.09888044
 C      7   4   1     1.526999910930   106.98136549   121.79671752
 H     40   7   4     1.091774198463   110.39715823   298.55156114
 H     40   7   4     1.092976393274   110.86037503   178.34969666
 H     40   7   4     1.091893680264   110.27600563    58.21869576
 Fe     2   1   3     1.928204838690    99.88027989    91.45671053
 O     44   2   1     1.907306401249    80.11986194     0.00000000
 O     44   2   1     1.779417515553    97.70620921   131.77655517
 O     44   2   1     1.769042939200   130.12486737   245.26890633
 C     45  44   2     1.437722987869   131.13826877   174.06966222
 C     46  44   2     1.412115915348   132.42309635   159.85888970
 C     47  44   2     1.415620604253   133.31389198    45.27558285
 C     48  45  44     1.521706263384   108.46850619   224.10095791
 H     51  48  45     1.091323668116   110.74062272    61.39986708
 H     51  48  45     1.092243391384   110.00118879   180.76601899
 H     51  48  45     1.091538312947   110.73650322   300.42664860
 C     48  45  44     1.521815392040   109.60610932   104.27043886
 H     55  48  45     1.090407108965   109.85699119    54.32445432
 H     55  48  45     1.092602225258   110.00270452   174.49689194
 H     55  48  45     1.090617240386   111.13329184   293.85768626
 C     48  45  44     1.520930988636   107.93528822   343.33252438
 H     59  48  45     1.092372349803   111.04536750    59.70365461
 H     59  48  45     1.092294746758   110.27647733   179.36766813
 H     59  48  45     1.092769393018   110.65085253   299.00082127
 C     49  46  44     1.527336087279   105.37402990   162.47982207
 H     63  49  46     1.092068902729   110.36685266    59.25884322
 H     63  49  46     1.092940952991   110.73406405   179.41363465
 H     63  49  46     1.092102878318   110.22014855   299.64659591
 C     49  46  44     1.525850278848   109.56806676   280.75584395
 H     67  49  46     1.090624152414   110.11269820    62.50541455
 H     67  49  46     1.093244021738   110.85934229   182.85043013
 H     67  49  46     1.092714271867   110.11329813   302.53966555
 C     49  46  44     1.525186928533   111.63596229    43.42838531
 H     71  49  46     1.092841910549   110.21524536    57.80985352
 H     71  49  46     1.093004120466   110.64200045   177.24825152
 H     71  49  46     1.091119480924   110.49560553   297.22688254
 C     50  47  44     1.524205272572   112.24578178   358.69021005
 H     75  50  47     1.090191569586   111.69456285    58.09051026
 H     75  50  47     1.092639656759   110.36713323   178.44103195
 H     75  50  47     1.091901199847   110.67259075   297.62363296
 C     50  47  44     1.526128725930   107.56801284   120.59117915
 H     79  50  47     1.091891398944   109.96122780    55.68502363
 H     79  50  47     1.092766297933   110.77222554   175.64467695
 H     79  50  47     1.091289829931   110.98798498   295.90511396
 C     50  47  44     1.526980120622   106.98251392   238.20529426
 H     83  50  47     1.091770164596   110.39839953    61.45097006
 H     83  50  47     1.092972144588   110.86054228   181.65522147
 H     83  50  47     1.091895371571   110.27294295   301.78466821

---------------------------
INTERNAL COORDINATES (A.U.)
---------------------------
 Fe     0   0   0     0.000000000000     0.00000000     0.00000000
 O      1   0   0     3.604313187322     0.00000000     0.00000000
 O      1   2   0     3.362618522402   132.33364748     0.00000000
 O      1   2   3     3.343025753148   115.20066581   138.67716695
 C      2   1   3     2.716904803650   131.14012135   277.40495307
 C      3   1   2     2.668524131892   132.42160177   116.51161622
 C      4   1   2     2.675158487898   133.31696898    53.28559545
 C      5   2   1     2.875643439087   108.47034688   135.87373083
 H      8   5   2     2.062311121595   110.73987598   298.60360428
 H      8   5   2     2.064049029727   110.00254650   179.23724653
 H      8   5   2     2.062695990474   110.73666998    59.57665361
 C      5   2   1     2.875798764690   109.60809008   255.70637902
 H     12   5   2     2.060567470542   109.85794785   305.66867030
 H     12   5   2     2.064708537526   110.00117587   185.49558396
 H     12   5   2     2.060969647949   111.13398090    66.13525366
 C      5   2   1     2.874147163513   107.93269840    16.64525958
 H     16   5   2     2.064275469879   111.04426279   300.29514620
 H     16   5   2     2.064137318434   110.27671344   180.63219965
 H     16   5   2     2.065029781693   110.65236852    60.99761235
 C      6   3   1     2.886241369627   105.37251636   197.52885115
 H     20   6   3     2.063708441396   110.36751387   300.73834764
 H     20   6   3     2.065359465680   110.73372376   180.58361420
 H     20   6   3     2.063778212563   110.21992158    60.35117375
 C      6   3   1     2.883433889657   109.57052974    79.25382304
 H     24   6   3     2.060964098293   110.11289871   297.49256364
 H     24   6   3     2.065935808476   110.85924402   177.14837663
 H     24   6   3     2.064927174028   110.11397363    57.45866152
 C      6   3   1     2.882190320870   111.63527545   316.57851058
 H     28   6   3     2.065176972879   110.21453864   302.19795491
 H     28   6   3     2.065478770452   110.64193825   182.76009178
 H     28   6   3     2.061914506710   110.49560850    62.78116986
 C      7   4   1     2.880322120665   112.24469675     1.31364765
 H     32   7   4     2.060178864835   111.69560455   301.90689392
 H     32   7   4     2.064786009772   110.36475514   181.55777690
 H     32   7   4     2.063370126392   110.67471599    62.37330931
 C      7   4   1     2.883954667146   107.57139956   239.40937802
 H     36   7   4     2.063370092777   109.96159447   304.32004705
 H     36   7   4     2.065024226187   110.77465169   184.35964196
 H     36   7   4     2.062223887462   110.98503335    64.09888044
 C      7   4   1     2.885611638179   106.98136549   121.79671752
 H     40   7   4     2.063154235176   110.39715823   298.55156114
 H     40   7   4     2.065426054129   110.86037503   178.34969666
 H     40   7   4     2.063380023059   110.27600563    58.21869576
 Fe     2   1   3     3.643779075226    99.88027989    91.45671053
 O     44   2   1     3.604286751836    80.11986194     0.00000000
 O     44   2   1     3.362611782298    97.70620921   131.77655517
 O     44   2   1     3.343006674236   130.12486737   245.26890633
 C     45  44   2     2.716902703515   131.13826877   174.06966222
 C     46  44   2     2.668512349360   132.42309635   159.85888970
 C     47  44   2     2.675135251575   133.31389198    45.27558285
 C     48  45  44     2.875608094068   108.46850619   224.10095791
 H     51  48  45     2.062302856206   110.74062272    61.39986708
 H     51  48  45     2.064040881300   110.00118879   180.76601899
 H     51  48  45     2.062708476152   110.73650322   300.42664860
 C     48  45  44     2.875814317341   109.60610932   104.27043886
 H     55  48  45     2.060570810424   109.85699119    54.32445432
 H     55  48  45     2.064718979051   110.00270452   174.49689194
 H     55  48  45     2.060967901263   111.13329184   293.85768626
 C     48  45  44     2.874143037115   107.93528822   343.33252438
 H     59  48  45     2.064284577396   111.04536750    59.70365461
 H     59  48  45     2.064137928893   110.27647733   179.36766813
 H     59  48  45     2.065034880335   110.65085253   299.00082127
 C     49  46  44     2.886246919412   105.37402990   162.47982207
 H     63  49  46     2.063711145530   110.36685266    59.25884322
 H     63  49  46     2.065359081699   110.73406405   179.41363465
 H     63  49  46     2.063775350089   110.22014855   299.64659591
 C     49  46  44     2.883439148391   109.56806676   280.75584395
 H     67  49  46     2.060980963102   110.11269820    62.50541455
 H     67  49  46     2.065931798632   110.85934229   182.85043013
 H     67  49  46     2.064930716455   110.11329813   302.53966555
 C     49  46  44     2.882185597964   111.63596229    43.42838531
 H     71  49  46     2.065171918610   110.21524536    57.80985352
 H     71  49  46     2.065478450928   110.64200045   177.24825152
 H     71  49  46     2.061916998333   110.49560553   297.22688254
 C     50  47  44     2.880330537041   112.24578178   358.69021005
 H     75  50  47     2.060163500027   111.69456285    58.09051026
 H     75  50  47     2.064789714336   110.36713323   178.44103195
 H     75  50  47     2.063394233012   110.67259075   297.62363296
 C     50  47  44     2.883965337118   107.56801284   120.59117915
 H     79  50  47     2.063375711988   109.96122780    55.68502363
 H     79  50  47     2.065029031473   110.77222554   175.64467695
 H     79  50  47     2.062238911302   110.98798498   295.90511396
 C     50  47  44     2.885574239918   106.98251392   238.20529426
 H     83  50  47     2.063146612272   110.39839953    61.45097006
 H     83  50  47     2.065418025276   110.86054228   181.65522147
 H     83  50  47     2.063383219166   110.27294295   301.78466821

---------------------
BASIS SET INFORMATION
---------------------
There are 4 groups of distinct atoms

 Group   1 Type Fe  : 17s11p7d1f contracted to 6s4p4d1f pattern {842111/6311/4111/1}
 Group   2 Type O   : 11s6p2d1f contracted to 5s3p2d1f pattern {62111/411/11/1}
 Group   3 Type C   : 11s6p2d1f contracted to 5s3p2d1f pattern {62111/411/11/1}
 Group   4 Type H   : 5s1p contracted to 3s1p pattern {311/1}

Atom   0Fe   basis set group =>   1
Atom   1O    basis set group =>   2
Atom   2O    basis set group =>   2
Atom   3O    basis set group =>   2
Atom   4C    basis set group =>   3
Atom   5C    basis set group =>   3
Atom   6C    basis set group =>   3
Atom   7C    basis set group =>   3
Atom   8H    basis set group =>   4
Atom   9H    basis set group =>   4
Atom  10H    basis set group =>   4
Atom  11C    basis set group =>   3
Atom  12H    basis set group =>   4
Atom  13H    basis set group =>   4
Atom  14H    basis set group =>   4
Atom  15C    basis set group =>   3
Atom  16H    basis set group =>   4
Atom  17H    basis set group =>   4
Atom  18H    basis set group =>   4
Atom  19C    basis set group =>   3
Atom  20H    basis set group =>   4
Atom  21H    basis set group =>   4
Atom  22H    basis set group =>   4
Atom  23C    basis set group =>   3
Atom  24H    basis set group =>   4
Atom  25H    basis set group =>   4
Atom  26H    basis set group =>   4
Atom  27C    basis set group =>   3
Atom  28H    basis set group =>   4
Atom  29H    basis set group =>   4
Atom  30H    basis set group =>   4
Atom  31C    basis set group =>   3
Atom  32H    basis set group =>   4
Atom  33H    basis set group =>   4
Atom  34H    basis set group =>   4
Atom  35C    basis set group =>   3
Atom  36H    basis set group =>   4
Atom  37H    basis set group =>   4
Atom  38H    basis set group =>   4
Atom  39C    basis set group =>   3
Atom  40H    basis set group =>   4
Atom  41H    basis set group =>   4
Atom  42H    basis set group =>   4
Atom  43Fe   basis set group =>   1
Atom  44O    basis set group =>   2
Atom  45O    basis set group =>   2
Atom  46O    basis set group =>   2
Atom  47C    basis set group =>   3
Atom  48C    basis set group =>   3
Atom  49C    basis set group =>   3
Atom  50C    basis set group =>   3
Atom  51H    basis set group =>   4
Atom  52H    basis set group =>   4
Atom  53H    basis set group =>   4
Atom  54C    basis set group =>   3
Atom  55H    basis set group =>   4
Atom  56H    basis set group =>   4
Atom  57H    basis set group =>   4
Atom  58C    basis set group =>   3
Atom  59H    basis set group =>   4
Atom  60H    basis set group =>   4
Atom  61H    basis set group =>   4
Atom  62C    basis set group =>   3
Atom  63H    basis set group =>   4
Atom  64H    basis set group =>   4
Atom  65H    basis set group =>   4
Atom  66C    basis set group =>   3
Atom  67H    basis set group =>   4
Atom  68H    basis set group =>   4
Atom  69H    basis set group =>   4
Atom  70C    basis set group =>   3
Atom  71H    basis set group =>   4
Atom  72H    basis set group =>   4
Atom  73H    basis set group =>   4
Atom  74C    basis set group =>   3
Atom  75H    basis set group =>   4
Atom  76H    basis set group =>   4
Atom  77H    basis set group =>   4
Atom  78C    basis set group =>   3
Atom  79H    basis set group =>   4
Atom  80H    basis set group =>   4
Atom  81H    basis set group =>   4
Atom  82C    basis set group =>   3
Atom  83H    basis set group =>   4
Atom  84H    basis set group =>   4
Atom  85H    basis set group =>   4
---------------------------------
AUXILIARY/J BASIS SET INFORMATION
---------------------------------
There are 4 groups of distinct atoms

 Group   1 Type Fe  : 19s5p5d3f3g contracted to 8s5p5d2f3g pattern {121111111/11111/11111/21/111}
 Group   2 Type O   : 12s5p4d2f1g contracted to 6s4p3d1f1g pattern {711111/2111/211/2/1}
 Group   3 Type C   : 12s5p4d2f1g contracted to 6s4p3d1f1g pattern {711111/2111/211/2/1}
 Group   4 Type H   : 5s2p1d contracted to 3s1p1d pattern {311/2/1}

Atom   0Fe   basis set group =>   1
Atom   1O    basis set group =>   2
Atom   2O    basis set group =>   2
Atom   3O    basis set group =>   2
Atom   4C    basis set group =>   3
Atom   5C    basis set group =>   3
Atom   6C    basis set group =>   3
Atom   7C    basis set group =>   3
Atom   8H    basis set group =>   4
Atom   9H    basis set group =>   4
Atom  10H    basis set group =>   4
Atom  11C    basis set group =>   3
Atom  12H    basis set group =>   4
Atom  13H    basis set group =>   4
Atom  14H    basis set group =>   4
Atom  15C    basis set group =>   3
Atom  16H    basis set group =>   4
Atom  17H    basis set group =>   4
Atom  18H    basis set group =>   4
Atom  19C    basis set group =>   3
Atom  20H    basis set group =>   4
Atom  21H    basis set group =>   4
Atom  22H    basis set group =>   4
Atom  23C    basis set group =>   3
Atom  24H    basis set group =>   4
Atom  25H    basis set group =>   4
Atom  26H    basis set group =>   4
Atom  27C    basis set group =>   3
Atom  28H    basis set group =>   4
Atom  29H    basis set group =>   4
Atom  30H    basis set group =>   4
Atom  31C    basis set group =>   3
Atom  32H    basis set group =>   4
Atom  33H    basis set group =>   4
Atom  34H    basis set group =>   4
Atom  35C    basis set group =>   3
Atom  36H    basis set group =>   4
Atom  37H    basis set group =>   4
Atom  38H    basis set group =>   4
Atom  39C    basis set group =>   3
Atom  40H    basis set group =>   4
Atom  41H    basis set group =>   4
Atom  42H    basis set group =>   4
Atom  43Fe   basis set group =>   1
Atom  44O    basis set group =>   2
Atom  45O    basis set group =>   2
Atom  46O    basis set group =>   2
Atom  47C    basis set group =>   3
Atom  48C    basis set group =>   3
Atom  49C    basis set group =>   3
Atom  50C    basis set group =>   3
Atom  51H    basis set group =>   4
Atom  52H    basis set group =>   4
Atom  53H    basis set group =>   4
Atom  54C    basis set group =>   3
Atom  55H    basis set group =>   4
Atom  56H    basis set group =>   4
Atom  57H    basis set group =>   4
Atom  58C    basis set group =>   3
Atom  59H    basis set group =>   4
Atom  60H    basis set group =>   4
Atom  61H    basis set group =>   4
Atom  62C    basis set group =>   3
Atom  63H    basis set group =>   4
Atom  64H    basis set group =>   4
Atom  65H    basis set group =>   4
Atom  66C    basis set group =>   3
Atom  67H    basis set group =>   4
Atom  68H    basis set group =>   4
Atom  69H    basis set group =>   4
Atom  70C    basis set group =>   3
Atom  71H    basis set group =>   4
Atom  72H    basis set group =>   4
Atom  73H    basis set group =>   4
Atom  74C    basis set group =>   3
Atom  75H    basis set group =>   4
Atom  76H    basis set group =>   4
Atom  77H    basis set group =>   4
Atom  78C    basis set group =>   3
Atom  79H    basis set group =>   4
Atom  80H    basis set group =>   4
Atom  81H    basis set group =>   4
Atom  82C    basis set group =>   3
Atom  83H    basis set group =>   4
Atom  84H    basis set group =>   4
Atom  85H    basis set group =>   4


           ************************************************************
           *        Program running with 32 parallel MPI-processes    *
           *              working on a common directory               *
           ************************************************************
------------------------------------------------------------------------------
                           ORCA GTO INTEGRAL CALCULATION
                           -- RI-GTO INTEGRALS CHOSEN --
------------------------------------------------------------------------------
------------------------------------------------------------------------------
                   ___                                                        
                  /   \      - P O W E R E D   B Y -                         
                 /     \                                                     
                 |  |  |   _    _      __       _____    __    __             
                 |  |  |  | |  | |    /  \     |  _  \  |  |  /  |          
                  \  \/   | |  | |   /    \    | | | |  |  | /  /          
                 / \  \   | |__| |  /  /\  \   | |_| |  |  |/  /          
                |  |  |   |  __  | /  /__\  \  |    /   |      \           
                |  |  |   | |  | | |   __   |  |    \   |  |\   \          
                \     /   | |  | | |  |  |  |  | |\  \  |  | \   \       
                 \___/    |_|  |_| |__|  |__|  |_| \__\ |__|  \__/        
                                                                              
                      - O R C A' S   B I G   F R I E N D -                    
                                      &                                       
                       - I N T E G R A L  F E E D E R -                       
                                                                              
 v1 FN, 2020, v2 2021                                                         
------------------------------------------------------------------------------


Reading SHARK input file Fe2_tert-butoxide_6_LowSpin.SHARKINP.tmp ... ok
----------------------
SHARK INTEGRAL PACKAGE
----------------------

Number of atoms                             ...     86
Number of basis functions                   ...   1344
Number of shells                            ...    576
Maximum angular momentum                    ...      3
Integral batch strategy                     ... SHARK/LIBINT Hybrid
RI-J (if used) integral strategy            ... SPLIT-RIJ (Revised 2003 algorithm where possible)
Printlevel                                  ...      1
Contraction scheme used                     ... SEGMENTED contraction
Coulomb Range Separation                    ... NOT USED
Exchange Range Separation                   ... NOT USED
Finite Nucleus Model                        ... NOT USED
Auxiliary Coulomb fitting basis             ... AVAILABLE
   # of basis functions in Aux-J            ...   2242
   # of shells in Aux-J                     ...    766
   Maximum angular momentum in Aux-J        ...      4
Auxiliary J/K fitting basis                 ... NOT available
Auxiliary Correlation fitting basis         ... NOT available
Auxiliary 'external' fitting basis          ... NOT available
Integral threshold                          ...     1.000000e-10
Primitive cut-off                           ...     1.000000e-11
Primitive pair pre-selection threshold      ...     1.000000e-11

Calculating pre-screening integrals         ... done (  0.1 sec) Dimension = 576
Organizing shell pair data                  ... done (  0.9 sec)
Shell pair information
Total number of shell pairs                 ...    166176
Shell pairs after pre-screening             ...    102710
Total number of primitive shell pairs       ...    497446
Primitive shell pairs kept                  ...    193169
          la=0 lb=0:  32791 shell pairs
          la=1 lb=0:  31114 shell pairs
          la=1 lb=1:   7405 shell pairs
          la=2 lb=0:  13642 shell pairs
          la=2 lb=1:   6450 shell pairs
          la=2 lb=2:   1504 shell pairs
          la=3 lb=0:   5624 shell pairs
          la=3 lb=1:   2706 shell pairs
          la=3 lb=2:   1224 shell pairs
          la=3 lb=3:    250 shell pairs

Calculating one electron integrals          ... done (  0.1 sec)
Calculating RI/J V-Matrix + Cholesky decomp.... done (  1.3 sec)
Calculating Nuclear repulsion               ... done (  0.0 sec) ENN=   5647.209689092401 Eh

SHARK setup successfully completed in   3.4 seconds

Maximum memory used throughout the entire GTOINT-calculation: 143.9 MB


           ************************************************************
           *        Program running with 32 parallel MPI-processes    *
           *              working on a common directory               *
           ************************************************************
-------------------------------------------------------------------------------
                                 ORCA SCF
-------------------------------------------------------------------------------

------------
SCF SETTINGS
------------
Hamiltonian:
 Density Functional     Method          .... DFT(GTOs)
 Exchange Functional    Exchange        .... PBE
   PBE kappa parameter   XKappa         ....  0.804000
   PBE mue parameter    XMuePBE         ....  0.219520
 Correlation Functional Correlation     .... PBE
   PBE beta parameter  CBetaPBE         ....  0.066725
 LDA part of GGA corr.  LDAOpt          .... PW91-LDA
 Gradients option       PostSCFGGA      .... off
   Density functional embedding theory  .... OFF
   NL short-range parameter             ....  6.400000
 RI-approximation to the Coulomb term is turned on
   Number of AuxJ basis functions       .... 2242


General Settings:
 Integral files         IntName         .... Fe2_tert-butoxide_6_LowSpin
 Hartree-Fock type      HFTyp           .... UHF
 Total Charge           Charge          ....    0
 Multiplicity           Mult            ....    3
 Number of Electrons    NEL             ....  298
 Basis Dimension        Dim             .... 1344
 Nuclear Repulsion      ENuc            ....   5647.2096890924 Eh

Convergence Acceleration:
 DIIS                   CNVDIIS         .... on
   Start iteration      DIISMaxIt       ....    12
   Startup error        DIISStart       ....  0.200000
   # of expansion vecs  DIISMaxEq       ....     5
   Bias factor          DIISBfac        ....   1.050
   Max. coefficient     DIISMaxC        ....  10.000
 Trust-Rad. Augm. Hess. CNVTRAH         .... auto
   Auto Start mean grad. ratio tolernc. ....  1.125000
   Auto Start start iteration           ....    20
   Auto Start num. interpolation iter.  ....    10
   Max. Number of Micro iterations      ....    16
   Max. Number of Macro iterations      .... Maxiter - #DIIS iter
   Number of Davidson start vectors     ....     2
   Converg. threshold I  (grad. norm)   ....   5.000e-05
   Converg. threshold II (energy diff.) ....   1.000e-06
   Grad. Scal. Fac. for Micro threshold ....   0.100
   Minimum threshold for Micro iter.    ....   0.010
   NR start threshold (gradient norm)   ....   0.001
   Initial trust radius                 ....   0.400
   Minimum AH scaling param. (alpha)    ....   1.000
   Maximum AH scaling param. (alpha)    .... 1000.000
   Orbital update algorithm             .... Taylor
   White noise on init. David. guess    .... on
   Maximum white noise                  ....   0.010
   Quad. conv. algorithm                .... NR
 SOSCF                  CNVSOSCF        .... off
 Level Shifting         CNVShift        .... on
   Level shift para.    LevelShift      ....    0.2500
   Turn off err/grad.   ShiftErr        ....    0.0010
 Zerner damping         CNVZerner       .... off
 Static damping         CNVDamp         .... on
   Fraction old density DampFac         ....    0.7000
   Max. Damping (<1)    DampMax         ....    0.9800
   Min. Damping (>=0)   DampMin         ....    0.0000
   Turn off err/grad.   DampErr         ....    0.1000
 Fernandez-Rico         CNVRico         .... off

SCF Procedure:
 Maximum # iterations   MaxIter         ....   125
 SCF integral mode      SCFMode         .... Direct
   Integral package                     .... SHARK and LIBINT hybrid scheme
 Reset frequency        DirectResetFreq ....    20
 Integral Threshold     Thresh          ....  1.000e-10 Eh
 Primitive CutOff       TCut            ....  1.000e-11 Eh

Convergence Tolerance:
 Convergence Check Mode ConvCheckMode   .... Total+1el-Energy
 Convergence forced     ConvForced      .... 0
 Energy Change          TolE            ....  1.000e-06 Eh
 1-El. energy change                    ....  1.000e-03 Eh
 DIIS Error             TolErr          ....  1.000e-06


Diagonalization of the overlap matrix:
Smallest eigenvalue                        ... 8.534e-05
Time for diagonalization                   ...    1.943 sec
Threshold for overlap eigenvalues          ... 1.000e-08
Number of eigenvalues below threshold      ... 0
Time for construction of square roots      ...    0.295 sec
Total time needed                          ...    2.251 sec

Time for model grid setup =    0.618 sec

------------------------------
INITIAL GUESS: MODEL POTENTIAL
------------------------------
Loading Hartree-Fock densities                     ... done
Calculating cut-offs                               ... done
Initializing the effective Hamiltonian             ... done
Setting up the integral package (SHARK)            ... done
Starting the Coulomb interaction                   ... done (   0.6 sec)
Reading the grid                                   ... done
Mapping shells                                     ... done
Starting the XC term evaluation                    ... done (   0.2 sec)
  promolecular density results
     # of electrons  =    297.976193851
     EX              =   -296.091892895
     EC              =    -10.528122360
     EX+EC           =   -306.620015255
Transforming the Hamiltonian                       ... done (   0.1 sec)
Diagonalizing the Hamiltonian                      ... done (   0.3 sec)
Back transforming the eigenvectors                 ... done (   0.1 sec)
Now organizing SCF variables                       ... done
                      ------------------
                      INITIAL GUESS DONE (   2.1 sec)
                      ------------------
-------------------
DFT GRID GENERATION
-------------------

General Integration Accuracy     IntAcc      ... 4.388
Radial Grid Type                 RadialGrid  ... OptM3 with GC (2021)
Angular Grid (max. ang.)         AngularGrid ... 4 (Lebedev-302)
Angular grid pruning method      GridPruning ... 4 (adaptive)
Weight generation scheme         WeightScheme... Becke
Basis function cutoff            BFCut       ... 1.0000e-10
Integration weight cutoff        WCut        ... 1.0000e-14
Angular grids for H and He will be reduced by one unit
Partially contracted basis set               ... off
Rotationally invariant grid construction     ... off

Total number of grid points                  ...   367201
Total number of batches                      ...     5775
Average number of points per batch           ...       63
Average number of grid points per atom       ...     4270
Time for grid setup =    2.266 sec

--------------
SCF ITERATIONS
--------------
ITER       Energy         Delta-E        Max-DP      RMS-DP      [F,P]     Damp
               ***  Starting incremental Fock matrix formation  ***
  0  -3922.5977454177   0.000000000000 0.12258477  0.00045314  0.1561646 0.7000
  1  -3923.0014954208  -0.403750003130 2.00275041  0.00817347  0.1618135 0.7000
                               ***Turning on DIIS***
  2  -3923.1939478021  -0.192452381267 1.62552562  0.00654831  0.0865603 0.0000
  3  -3922.2205934715   0.973354330529 0.08431462  0.00045193  0.3699828 0.7000
  4  -3922.5275684466  -0.306974975118 0.08023097  0.00044589  0.3330667 0.7000
  5  -3922.8582272396  -0.330658792954 0.06222515  0.00035802  0.2916535 0.7000
  6  -3923.1543553749  -0.296128135317 0.04551299  0.00027019  0.2522469 0.7000
  7  -3923.4045378853  -0.250182510410 0.04341642  0.00029892  0.2167111 0.7000
  8  -3923.9431119336  -0.538574048282 0.07628793  0.00055137  0.0991301 0.0000
  9  -3923.9347679075   0.008344026084 0.01299858  0.00006842  0.1806512 0.7000
 10  -3924.0071256310  -0.072357723492 0.01627266  0.00008516  0.1463309 0.7000
 11  -3924.0922261348  -0.085100503808 0.04128324  0.00025284  0.0988050 0.0000
 12  -3924.2310853955  -0.138859260642 0.00665413  0.00005502  0.0107821 0.0000
 13  -3924.2330442101  -0.001958814657 0.00688386  0.00003234  0.0182052 0.0000
 14  -3924.2369031926  -0.003858982525 0.00532397  0.00002132  0.0040562 0.0000
 15  -3924.2379581164  -0.001054923750 0.00511192  0.00001798  0.0052728 0.0000
 16  -3924.2390311744  -0.001073057952 0.00437599  0.00001604  0.0023208 0.0000
 17  -3924.2399399230  -0.000908748631 0.00481808  0.00001695  0.0021690 0.0000
 18  -3924.2408965600  -0.000956637013 0.00418008  0.00001587  0.0021440 0.0000
 19  -3924.2417869035  -0.000890343533 0.00391465  0.00001546  0.0021150 0.0000
               *** Restarting incremental Fock matrix formation ***
                                   *** Resetting DIIS ***
 20  -3924.2426481104  -0.000861206870 0.00430429  0.00001608  0.0020345 0.0000
 21  -3924.2434854914  -0.000837380976 0.00364040  0.00001452  0.0022669 0.0000
 22  -3924.2442774293  -0.000791937955 0.00337803  0.00001470  0.0018704 0.0000

 WARNING: the maximum gradient error descreased on average only by a factor   1.1
          during the last 20 iterations

                      *** Initiating the TRAH-SCF procedure ***


TRAH GRID
---------

General Integration Accuracy     IntAcc      ... 3.467
Radial Grid Type                 RadialGrid  ... OptM3 with GC (2021)
Angular Grid (max. ang.)         AngularGrid ... 1 (Lebedev-50)
Angular grid pruning method      GridPruning ... 4 (adaptive)
Weight generation scheme         WeightScheme... Becke
Basis function cutoff            BFCut       ... 1.0000e-10
Integration weight cutoff        WCut        ... 1.0000e-14
Angular grids for H and He will be reduced by one unit
Partially contracted basis set               ... off
Rotationally invariant grid construction     ... off

Total number of grid points                  ...    54076
Total number of batches                      ...      890
Average number of points per batch           ...       60
Average number of grid points per atom       ...      629

 --------------------------------------------------------------------------------------------
   Iter.        energy            ||Error||_2        Shift      TRadius  Mac/Mic        Rej.
 --------------------------------------------------------------------------------------------
    0      -3924.245021868956     1.160887e-02                     0.400 (TRAH MAcro)   No
WARNING : small    HOMO - LUMO gap : (op = alpha) 0.019453
    0     dE    -8.780224e-05     2.826265e-02    -8.7797e-05      0.008 (TRAH MIcro)
    0     dE    -4.647271e-03     7.266074e-02    -5.2112e-03      0.400 (TRAH MIcro)
    0     dE    -5.528345e-03     3.372274e-02    -1.0483e-02      0.400 (TRAH MIcro)
    0     dE    -5.925837e-03     2.008010e-02    -1.2502e-02      0.400 (TRAH MIcro)
    0     dE    -6.190111e-03     1.249833e-02    -1.5092e-02      0.392 (TRAH MIcro)
    0     dE    -6.295429e-03     8.047362e-03    -1.5229e-02      0.396 (TRAH MIcro)
    0     dE    -6.382055e-03     3.537031e-03    -1.5346e-02      0.400 (TRAH MIcro)
    0     dE    -6.389512e-03     2.069057e-03    -1.5440e-02      0.400 (TRAH MIcro)
    0     dE    -6.391937e-03     1.229089e-03    -1.5490e-02      0.400 (TRAH MIcro)
    0     dE    -6.392757e-03     6.324702e-04    -1.5520e-02      0.400 (TRAH MIcro)
    1      -3924.250010152615     1.086354e-02                     0.480 (TRAH MAcro)   No
    1     dE    -2.410902e-05     1.437256e-02    -2.4109e-05      0.002 (TRAH MIcro)
    1     dE    -1.886756e-04     1.067639e-02    -1.8828e-04      0.046 (TRAH MIcro)
    1     dE    -2.771665e-04     5.927233e-03    -2.7538e-04      0.081 (TRAH MIcro)
    1     dE    -3.216992e-04     4.910648e-03    -3.1835e-04      0.103 (TRAH MIcro)
    1     dE    -3.290838e-04     3.986275e-03    -3.2540e-04      0.106 (TRAH MIcro)
    1     dE    -3.410316e-04     3.512153e-03    -3.3670e-04      0.113 (TRAH MIcro)
    1     dE    -3.485943e-04     2.740053e-03    -3.4376e-04      0.119 (TRAH MIcro)
    1     dE    -3.515341e-04     1.220258e-03    -3.4646e-04      0.121 (TRAH MIcro)
    1     dE    -3.528146e-04     9.308901e-04    -3.4761e-04      0.122 (TRAH MIcro)
    2      -3924.250359529415     1.751925e-03                     0.576 (TRAH MAcro)   No
    2     dE    -5.748773e-07     2.011566e-03    -5.7488e-07      0.000 (TRAH MIcro)
    2     dE    -1.673277e-06     9.500829e-04    -1.6733e-06      0.002 (TRAH MIcro)
    2     dE    -2.185313e-06     9.203595e-04    -2.1853e-06      0.004 (TRAH MIcro)
    2     dE    -2.812629e-06     7.030367e-04    -2.8125e-06      0.006 (TRAH MIcro)
    2     dE    -3.377637e-06     6.008684e-04    -3.3773e-06      0.009 (TRAH MIcro)
    2     dE    -3.810553e-06     7.336131e-04    -3.8099e-06      0.013 (TRAH MIcro)
    2     dE    -4.125322e-06     8.107720e-04    -4.1243e-06      0.015 (TRAH MIcro)
    2     dE    -4.448232e-06     5.393615e-04    -4.4467e-06      0.019 (TRAH MIcro)
    2     dE    -4.620528e-06     3.077944e-04    -4.6186e-06      0.021 (TRAH MIcro)
    2     dE    -4.714244e-06     2.058904e-04    -4.7120e-06      0.022 (TRAH MIcro)
    2     dE    -4.736859e-06     1.225189e-04    -4.7346e-06      0.022 (TRAH MIcro)
    3      -3924.250364409010     1.301955e-04                           (NR   MAcro)
    3     dE    -8.467664e-09     8.622283e-05                           (NR   MIcro)
    3     dE    -1.283238e-08     7.034857e-05                           (NR   MIcro)
    3     dE    -1.473080e-08     5.798688e-05                           (NR   MIcro)
    3     dE    -1.708469e-08     5.638741e-05                           (NR   MIcro)
    3     dE    -1.846998e-08     4.780929e-05                           (NR   MIcro)
    3     dE    -2.059369e-08     4.470198e-05                           (NR   MIcro)
    3     dE    -2.215971e-08     3.914120e-05                           (NR   MIcro)
    3     dE    -2.325436e-08     2.599570e-05                           (NR   MIcro)
    3     dE    -2.385731e-08     1.931569e-05                           (NR   MIcro)
    3     dE    -2.428084e-08     1.423657e-05                           (NR   MIcro)
    3     dE    -2.440209e-08     1.191406e-05                           (NR   MIcro)
    3     dE    -2.447641e-08     5.259813e-06                           (NR   MIcro)
    3     dE    -2.449506e-08     2.706739e-06                           (NR   MIcro)
    4      -3924.250364434072     3.418162e-06                           (NR   MAcro)

               *****************************************************
               *                     SUCCESS                       *
               *           SCF CONVERGED AFTER  71 CYCLES          *
               *****************************************************


----------------
TOTAL SCF ENERGY
----------------

Total Energy       :        -3924.25036443 Eh         -106784.28122 eV

Components:
Nuclear Repulsion  :         5647.20968909 Eh          153668.38799 eV
Electronic Energy  :        -9571.46005353 Eh         -260452.66921 eV
One Electron Energy:       -16655.69948779 Eh         -453224.62456 eV
Two Electron Energy:         7084.23943426 Eh          192771.95534 eV

Virial components:
Potential Energy   :        -7839.01411937 Eh         -213310.41868 eV
Kinetic Energy     :         3914.76375494 Eh          106526.13746 eV
Virial Ratio       :            2.00242329


DFT components:
N(Alpha)           :      149.999893687006 electrons
N(Beta)            :      147.999903182917 electrons
N(Total)           :      297.999796869923 electrons
E(X)               :     -300.847643340206 Eh       
E(C)               :      -10.460868515538 Eh       
E(XC)              :     -311.308511855745 Eh       
DFET-embed. en.    :        0.000000000000 Eh       

---------------
SCF CONVERGENCE
---------------

  Last Energy change         ...   -2.5062e-08  Tolerance :   1.0000e-06
  Last Orbital Gradient      ...    3.4182e-06  Tolerance :   5.0000e-05
  Last Orbital Rotation      ...    1.4819e-03

             **** THE GBW FILE WAS UPDATED (Fe2_tert-butoxide_6_LowSpin.gbw) ****
             **** DENSITY Fe2_tert-butoxide_6_LowSpin.scfp WAS UPDATED ****
             **** ENERGY FILE WAS UPDATED (Fe2_tert-butoxide_6_LowSpin.en.tmp) ****
----------------------
UHF SPIN CONTAMINATION
----------------------

Warning: in a DFT calculation there is little theoretical justification to 
         calculate <S**2> as in Hartree-Fock theory. We will do it anyways
         but you should keep in mind that the values have only limited relevance

Expectation value of <S**2>     :     3.487839
Ideal value S*(S+1) for S=1.0   :     2.000000
Deviation                       :     1.487839

             **** THE GBW FILE WAS UPDATED (Fe2_tert-butoxide_6_LowSpin.gbw) ****
             **** DENSITY Fe2_tert-butoxide_6_LowSpin.scfp WAS UPDATED ****
----------------
ORBITAL ENERGIES
----------------
                 SPIN UP ORBITALS
  NO   OCC          E(Eh)            E(eV) 
   0   1.0000    -254.714400     -6931.1312 
   1   1.0000    -254.714397     -6931.1311 
   2   1.0000     -29.544069      -803.9350 
   3   1.0000     -29.544066      -803.9349 
   4   1.0000     -25.491574      -693.6610 
   5   1.0000     -25.491572      -693.6609 
   6   1.0000     -25.483942      -693.4533 
   7   1.0000     -25.483925      -693.4529 
   8   1.0000     -25.477135      -693.2681 
   9   1.0000     -25.477129      -693.2679 
  10   1.0000     -18.766074      -510.6508 
  11   1.0000     -18.766064      -510.6506 
  12   1.0000     -18.738855      -509.9102 
  13   1.0000     -18.738850      -509.9100 
  14   1.0000     -18.728756      -509.6354 
  15   1.0000     -18.728753      -509.6353 
  16   1.0000      -9.942500      -270.5492 
  17   1.0000      -9.942498      -270.5491 
  18   1.0000      -9.935618      -270.3619 
  19   1.0000      -9.935615      -270.3618 
  20   1.0000      -9.925611      -270.0896 
  21   1.0000      -9.925609      -270.0895 
  22   1.0000      -9.870567      -268.5918 
  23   1.0000      -9.870565      -268.5917 
  24   1.0000      -9.868388      -268.5325 
  25   1.0000      -9.868383      -268.5324 
  26   1.0000      -9.867223      -268.5008 
  27   1.0000      -9.867221      -268.5007 
  28   1.0000      -9.864604      -268.4295 
  29   1.0000      -9.864602      -268.4295 
  30   1.0000      -9.864000      -268.4131 
  31   1.0000      -9.863994      -268.4129 
  32   1.0000      -9.863183      -268.3909 
  33   1.0000      -9.863182      -268.3908 
  34   1.0000      -9.859792      -268.2986 
  35   1.0000      -9.859791      -268.2985 
  36   1.0000      -9.856229      -268.2016 
  37   1.0000      -9.856228      -268.2016 
  38   1.0000      -9.854986      -268.1678 
  39   1.0000      -9.854983      -268.1677 
  40   1.0000      -3.291079       -89.5548 
  41   1.0000      -3.290999       -89.5526 
  42   1.0000      -2.122238       -57.7490 
  43   1.0000      -2.122142       -57.7464 
  44   1.0000      -2.105665       -57.2981 
  45   1.0000      -2.104744       -57.2730 
  46   1.0000      -2.090493       -56.8852 
  47   1.0000      -2.090337       -56.8810 
  48   1.0000      -0.921055       -25.0632 
  49   1.0000      -0.910909       -24.7871 
  50   1.0000      -0.896916       -24.4063 
  51   1.0000      -0.896258       -24.3884 
  52   1.0000      -0.888725       -24.1834 
  53   1.0000      -0.888511       -24.1776 
  54   1.0000      -0.720533       -19.6067 
  55   1.0000      -0.715024       -19.4568 
  56   1.0000      -0.706544       -19.2260 
  57   1.0000      -0.706377       -19.2215 
  58   1.0000      -0.697692       -18.9852 
  59   1.0000      -0.697639       -18.9837 
  60   1.0000      -0.627864       -17.0850 
  61   1.0000      -0.627408       -17.0726 
  62   1.0000      -0.625170       -17.0117 
  63   1.0000      -0.624393       -16.9906 
  64   1.0000      -0.622225       -16.9316 
  65   1.0000      -0.621737       -16.9183 
  66   1.0000      -0.619564       -16.8592 
  67   1.0000      -0.619334       -16.8529 
  68   1.0000      -0.613640       -16.6980 
  69   1.0000      -0.613573       -16.6962 
  70   1.0000      -0.612253       -16.6602 
  71   1.0000      -0.612115       -16.6565 
  72   1.0000      -0.522205       -14.2099 
  73   1.0000      -0.495569       -13.4851 
  74   1.0000      -0.493934       -13.4406 
  75   1.0000      -0.492085       -13.3903 
  76   1.0000      -0.484736       -13.1903 
  77   1.0000      -0.484233       -13.1766 
  78   1.0000      -0.439311       -11.9543 
  79   1.0000      -0.426620       -11.6089 
  80   1.0000      -0.424164       -11.5421 
  81   1.0000      -0.422477       -11.4962 
  82   1.0000      -0.419126       -11.4050 
  83   1.0000      -0.414935       -11.2910 
  84   1.0000      -0.413640       -11.2557 
  85   1.0000      -0.410448       -11.1688 
  86   1.0000      -0.407316       -11.0836 
  87   1.0000      -0.407129       -11.0785 
  88   1.0000      -0.404284       -11.0011 
  89   1.0000      -0.403336       -10.9753 
  90   1.0000      -0.399235       -10.8637 
  91   1.0000      -0.397742       -10.8231 
  92   1.0000      -0.392903       -10.6914 
  93   1.0000      -0.392871       -10.6906 
  94   1.0000      -0.391589       -10.6557 
  95   1.0000      -0.391212       -10.6454 
  96   1.0000      -0.365893        -9.9564 
  97   1.0000      -0.363684        -9.8963 
  98   1.0000      -0.361852        -9.8465 
  99   1.0000      -0.357454        -9.7268 
 100   1.0000      -0.356304        -9.6955 
 101   1.0000      -0.353722        -9.6253 
 102   1.0000      -0.351579        -9.5669 
 103   1.0000      -0.348681        -9.4881 
 104   1.0000      -0.348046        -9.4708 
 105   1.0000      -0.344721        -9.3803 
 106   1.0000      -0.344420        -9.3721 
 107   1.0000      -0.342522        -9.3205 
 108   1.0000      -0.341725        -9.2988 
 109   1.0000      -0.337331        -9.1792 
 110   1.0000      -0.334397        -9.0994 
 111   1.0000      -0.334210        -9.0943 
 112   1.0000      -0.329506        -8.9663 
 113   1.0000      -0.329221        -8.9585 
 114   1.0000      -0.324873        -8.8402 
 115   1.0000      -0.324066        -8.8183 
 116   1.0000      -0.322898        -8.7865 
 117   1.0000      -0.319987        -8.7073 
 118   1.0000      -0.318504        -8.6669 
 119   1.0000      -0.317857        -8.6493 
 120   1.0000      -0.314007        -8.5446 
 121   1.0000      -0.313663        -8.5352 
 122   1.0000      -0.311237        -8.4692 
 123   1.0000      -0.310674        -8.4539 
 124   1.0000      -0.307455        -8.3663 
 125   1.0000      -0.305391        -8.3101 
 126   1.0000      -0.302981        -8.2445 
 127   1.0000      -0.300652        -8.1811 
 128   1.0000      -0.299508        -8.1500 
 129   1.0000      -0.297692        -8.1006 
 130   1.0000      -0.296169        -8.0592 
 131   1.0000      -0.295805        -8.0493 
 132   1.0000      -0.282702        -7.6927 
 133   1.0000      -0.281260        -7.6535 
 134   1.0000      -0.276118        -7.5136 
 135   1.0000      -0.268276        -7.3002 
 136   1.0000      -0.260006        -7.0751 
 137   1.0000      -0.257716        -7.0128 
 138   1.0000      -0.248267        -6.7557 
 139   1.0000      -0.239072        -6.5055 
 140   1.0000      -0.237315        -6.4577 
 141   1.0000      -0.231941        -6.3114 
 142   1.0000      -0.226615        -6.1665 
 143   1.0000      -0.219579        -5.9750 
 144   1.0000      -0.185330        -5.0431 
 145   1.0000      -0.176195        -4.7945 
 146   1.0000      -0.170559        -4.6412 
 147   1.0000      -0.168940        -4.5971 
 148   1.0000      -0.161179        -4.3859 
 149   1.0000      -0.153891        -4.1876 
 150   0.0000      -0.125737        -3.4215 
 151   0.0000      -0.123789        -3.3685 
 152   0.0000      -0.109366        -2.9760 
 153   0.0000      -0.107693        -2.9305 
 154   0.0000      -0.002415        -0.0657 
 155   0.0000       0.013905         0.3784 
 156   0.0000       0.017074         0.4646 
 157   0.0000       0.020173         0.5489 
 158   0.0000       0.026488         0.7208 
 159   0.0000       0.027535         0.7493 
 160   0.0000       0.040767         1.1093 
 161   0.0000       0.045276         1.2320 
 162   0.0000       0.046116         1.2549 
 163   0.0000       0.048414         1.3174 
 164   0.0000       0.051270         1.3951 
 165   0.0000       0.051930         1.4131 
 166   0.0000       0.055531         1.5111 
 167   0.0000       0.056565         1.5392 
 168   0.0000       0.060724         1.6524 
 169   0.0000       0.063446         1.7265 
 170   0.0000       0.063881         1.7383 
 171   0.0000       0.066505         1.8097 
 172   0.0000       0.074423         2.0252 
 173   0.0000       0.075264         2.0480 
 174   0.0000       0.077743         2.1155 
 175   0.0000       0.080626         2.1939 
 176   0.0000       0.085174         2.3177 
 177   0.0000       0.088417         2.4060 
 178   0.0000       0.089969         2.4482 
 179   0.0000       0.090953         2.4750 
 180   0.0000       0.094374         2.5680 
 181   0.0000       0.097654         2.6573 
 182   0.0000       0.098229         2.6730 
 183   0.0000       0.098395         2.6775 
 184   0.0000       0.101488         2.7616 
 185   0.0000       0.105190         2.8624 
 186   0.0000       0.105815         2.8794 
 187   0.0000       0.107059         2.9132 
 188   0.0000       0.111469         3.0332 
 189   0.0000       0.112741         3.0678 
 190   0.0000       0.114704         3.1213 
 191   0.0000       0.118279         3.2185 
 192   0.0000       0.120145         3.2693 
 193   0.0000       0.120154         3.2696 
 194   0.0000       0.123302         3.3552 
 195   0.0000       0.124464         3.3868 
 196   0.0000       0.125900         3.4259 
 197   0.0000       0.126152         3.4328 
 198   0.0000       0.127346         3.4652 
 199   0.0000       0.127747         3.4762 
 200   0.0000       0.131244         3.5713 
 201   0.0000       0.131886         3.5888 
 202   0.0000       0.134147         3.6503 
 203   0.0000       0.134792         3.6679 
 204   0.0000       0.136905         3.7254 
 205   0.0000       0.138000         3.7552 
 206   0.0000       0.138964         3.7814 
 207   0.0000       0.139802         3.8042 
 208   0.0000       0.145485         3.9589 
 209   0.0000       0.146053         3.9743 
 210   0.0000       0.146739         3.9930 
 211   0.0000       0.147858         4.0234 
 212   0.0000       0.150407         4.0928 
 213   0.0000       0.151128         4.1124 
 214   0.0000       0.153365         4.1733 
 215   0.0000       0.154084         4.1928 
 216   0.0000       0.156836         4.2677 
 217   0.0000       0.157823         4.2946 
 218   0.0000       0.161684         4.3997 
 219   0.0000       0.161908         4.4057 
 220   0.0000       0.167986         4.5711 
 221   0.0000       0.170030         4.6268 
 222   0.0000       0.171725         4.6729 
 223   0.0000       0.174133         4.7384 
 224   0.0000       0.175589         4.7780 
 225   0.0000       0.178417         4.8550 
 226   0.0000       0.180782         4.9193 
 227   0.0000       0.182940         4.9780 
 228   0.0000       0.192150         5.2287 
 229   0.0000       0.192799         5.2463 
 230   0.0000       0.201214         5.4753 
 231   0.0000       0.201705         5.4887 
 232   0.0000       0.208666         5.6781 
 233   0.0000       0.216355         5.8873 
 234   0.0000       0.218101         5.9348 
 235   0.0000       0.220085         5.9888 
 236   0.0000       0.222445         6.0530 
 237   0.0000       0.227755         6.1975 
 238   0.0000       0.229063         6.2331 
 239   0.0000       0.231759         6.3065 
 240   0.0000       0.235248         6.4014 
 241   0.0000       0.241293         6.5659 
 242   0.0000       0.241712         6.5773 
 243   0.0000       0.247954         6.7472 
 244   0.0000       0.250819         6.8251 
 245   0.0000       0.253508         6.8983 
 246   0.0000       0.255773         6.9599 
 247   0.0000       0.258336         7.0297 
 248   0.0000       0.265538         7.2257 
 249   0.0000       0.266166         7.2427 
 250   0.0000       0.272168         7.4061 
 251   0.0000       0.272651         7.4192 
 252   0.0000       0.283262         7.7080 
 253   0.0000       0.284566         7.7434 
 254   0.0000       0.286957         7.8085 
 255   0.0000       0.288001         7.8369 
 256   0.0000       0.291188         7.9236 
 257   0.0000       0.294406         8.0112 
 258   0.0000       0.296152         8.0587 
 259   0.0000       0.297313         8.0903 
 260   0.0000       0.300328         8.1723 
 261   0.0000       0.305384         8.3099 
 262   0.0000       0.308971         8.4075 
 263   0.0000       0.309283         8.4160 
 264   0.0000       0.316115         8.6019 
 265   0.0000       0.316162         8.6032 
 266   0.0000       0.318182         8.6582 
 267   0.0000       0.322323         8.7709 
 268   0.0000       0.325986         8.8705 
 269   0.0000       0.326769         8.8918 
 270   0.0000       0.329189         8.9577 
 271   0.0000       0.330700         8.9988 
 272   0.0000       0.331143         9.0109 
 273   0.0000       0.333030         9.0622 
 274   0.0000       0.333257         9.0684 
 275   0.0000       0.338610         9.2140 
 276   0.0000       0.338828         9.2200 
 277   0.0000       0.339500         9.2383 
 278   0.0000       0.345980         9.4146 
 279   0.0000       0.346516         9.4292 
 280   0.0000       0.350890         9.5482 
 281   0.0000       0.352591         9.5945 
 282   0.0000       0.354201         9.6383 
 283   0.0000       0.357451         9.7267 
 284   0.0000       0.362005         9.8507 
 285   0.0000       0.366846         9.9824 
 286   0.0000       0.367719        10.0061 
 287   0.0000       0.374566        10.1924 
 288   0.0000       0.374908        10.2018 
 289   0.0000       0.378613        10.3026 
 290   0.0000       0.378814        10.3081 
 291   0.0000       0.379334        10.3222 
 292   0.0000       0.382516        10.4088 
 293   0.0000       0.384935        10.4746 
 294   0.0000       0.391517        10.6537 
 295   0.0000       0.394074        10.7233 
 296   0.0000       0.397301        10.8111 
 297   0.0000       0.399492        10.8707 
 298   0.0000       0.402754        10.9595 
 299   0.0000       0.403125        10.9696 
 300   0.0000       0.404359        11.0032 
 301   0.0000       0.405168        11.0252 
 302   0.0000       0.408348        11.1117 
[...]
      px      :     0.000042
      py      :    -0.000004
 57 H s       :    -0.000029  s :    -0.000029
      pz      :    -0.000002  p :     0.000022
      px      :     0.000016
      py      :     0.000007
 58 C s       :     0.000050  s :     0.000050
      pz      :    -0.000208  p :     0.000985
      px      :     0.000100
      py      :     0.001092
      dz2     :    -0.000103  d :     0.000152
      dxz     :    -0.000118
      dyz     :     0.000216
      dx2y2   :     0.000059
      dxy     :     0.000098
      f0      :    -0.000001  f :    -0.000005
      f+1     :    -0.000003
      f-1     :    -0.000003
      f+2     :    -0.000007
      f-2     :     0.000004
      f+3     :     0.000005
      f-3     :     0.000001
 59 H s       :     0.000248  s :     0.000248
      pz      :     0.000047  p :     0.000141
      px      :    -0.000003
      py      :     0.000097
 60 H s       :    -0.000032  s :    -0.000032
      pz      :     0.000014  p :     0.000038
      px      :     0.000002
      py      :     0.000022
 61 H s       :     0.000020  s :     0.000020
      pz      :    -0.000010  p :     0.000006
      px      :     0.000013
      py      :     0.000002
 62 C s       :    -0.000390  s :    -0.000390
      pz      :     0.000025  p :    -0.001180
      px      :    -0.001090
      py      :    -0.000115
      dz2     :     0.000219  d :     0.000391
      dxz     :     0.000037
      dyz     :    -0.000160
      dx2y2   :    -0.000025
      dxy     :     0.000320
      f0      :     0.000009  f :     0.000094
      f+1     :     0.000009
      f-1     :     0.000002
      f+2     :     0.000016
      f-2     :     0.000008
      f+3     :    -0.000001
      f-3     :     0.000050
 63 H s       :     0.000034  s :     0.000034
      pz      :     0.000007  p :    -0.000022
      px      :    -0.000025
      py      :    -0.000003
 64 H s       :    -0.000291  s :    -0.000291
      pz      :     0.000019  p :     0.000011
      px      :    -0.000010
      py      :     0.000002
 65 H s       :    -0.000018  s :    -0.000018
      pz      :     0.000004  p :    -0.000025
      px      :    -0.000037
      py      :     0.000008
 66 C s       :     0.000455  s :     0.000455
      pz      :    -0.000129  p :     0.000854
      px      :     0.000012
      py      :     0.000972
      dz2     :     0.000199  d :     0.001115
      dxz     :     0.000149
      dyz     :     0.000185
      dx2y2   :     0.000614
      dxy     :    -0.000031
      f0      :     0.000003  f :     0.000126
      f+1     :     0.000001
      f-1     :     0.000076
      f+2     :     0.000004
      f-2     :     0.000028
      f+3     :     0.000001
      f-3     :     0.000013
 67 H s       :     0.000140  s :     0.000140
      pz      :    -0.000008  p :     0.000065
      px      :     0.000101
      py      :    -0.000028
 68 H s       :     0.001012  s :     0.001012
      pz      :    -0.000009  p :     0.000035
      px      :     0.000001
      py      :     0.000043
 69 H s       :     0.000059  s :     0.000059
      pz      :     0.000017  p :     0.000024
      px      :     0.000002
      py      :     0.000005
 70 C s       :     0.000392  s :     0.000392
      pz      :     0.002228  p :     0.004093
      px      :     0.001356
      py      :     0.000510
      dz2     :     0.000067  d :     0.000235
      dxz     :     0.000213
      dyz     :    -0.000201
      dx2y2   :    -0.000032
      dxy     :     0.000188
      f0      :     0.000021  f :     0.000093
      f+1     :     0.000037
      f-1     :    -0.000001
      f+2     :     0.000012
      f-2     :     0.000019
      f+3     :     0.000001
      f-3     :     0.000003
 71 H s       :    -0.000041  s :    -0.000041
      pz      :     0.000037  p :     0.000076
      px      :     0.000015
      py      :     0.000024
 72 H s       :    -0.000160  s :    -0.000160
      pz      :     0.000032  p :     0.000092
      px      :     0.000041
      py      :     0.000020
 73 H s       :    -0.000458  s :    -0.000458
      pz      :     0.000060  p :     0.000043
      px      :    -0.000029
      py      :     0.000011
 74 C s       :     0.000559  s :     0.000559
      pz      :     0.001158  p :     0.002606
      px      :     0.000718
      py      :     0.000730
      dz2     :    -0.000085  d :     0.000830
      dxz     :     0.000165
      dyz     :     0.000140
      dx2y2   :     0.000338
      dxy     :     0.000272
      f0      :    -0.000002  f :     0.000085
      f+1     :     0.000026
      f-1     :     0.000002
      f+2     :     0.000001
      f-2     :     0.000040
      f+3     :     0.000018
      f-3     :    -0.000000
 75 H s       :     0.000046  s :     0.000046
      pz      :     0.000042  p :     0.000083
      px      :     0.000002
      py      :     0.000039
 76 H s       :     0.000449  s :     0.000449
      pz      :     0.000041  p :     0.000078
      px      :     0.000003
      py      :     0.000034
 77 H s       :    -0.000193  s :    -0.000193
      pz      :     0.000020  p :     0.000052
      px      :     0.000032
      py      :     0.000000
 78 C s       :    -0.001652  s :    -0.001652
      pz      :    -0.001639  p :    -0.006288
      px      :    -0.004297
      py      :    -0.000352
      dz2     :     0.000086  d :    -0.000419
      dxz     :    -0.000131
      dyz     :     0.000035
      dx2y2   :    -0.000448
      dxy     :     0.000037
      f0      :     0.000029  f :     0.000060
      f+1     :    -0.000002
      f-1     :     0.000006
      f+2     :     0.000015
      f-2     :     0.000004
      f+3     :     0.000003
      f-3     :     0.000006
 79 H s       :    -0.000010  s :    -0.000010
      pz      :    -0.000092  p :    -0.000126
      px      :    -0.000027
      py      :    -0.000007
 80 H s       :    -0.001565  s :    -0.001565
      pz      :    -0.000039  p :    -0.000109
      px      :    -0.000062
      py      :    -0.000008
 81 H s       :     0.000054  s :     0.000054
      pz      :    -0.000062  p :    -0.000174
      px      :    -0.000071
      py      :    -0.000041
 82 C s       :    -0.000388  s :    -0.000388
      pz      :    -0.000035  p :    -0.002730
      px      :    -0.000344
      py      :    -0.002350
      dz2     :    -0.000037  d :    -0.000085
      dxz     :     0.000163
      dyz     :    -0.000174
      dx2y2   :    -0.000201
      dxy     :     0.000163
      f0      :     0.000004  f :     0.000050
      f+1     :     0.000004
      f-1     :     0.000001
      f+2     :     0.000005
      f-2     :     0.000008
      f+3     :     0.000039
      f-3     :    -0.000011
 83 H s       :     0.000016  s :     0.000016
      pz      :    -0.000006  p :    -0.000058
      px      :    -0.000002
      py      :    -0.000050
 84 H s       :    -0.000549  s :    -0.000549
      pz      :     0.000013  p :    -0.000050
      px      :     0.000002
      py      :    -0.000065
 85 H s       :     0.000194  s :     0.000194
      pz      :    -0.000009  p :    -0.000051
      px      :    -0.000004
      py      :    -0.000038


                      *****************************
                      * MAYER POPULATION ANALYSIS *
                      *****************************

  NA   - Mulliken gross atomic population
  ZA   - Total nuclear charge
  QA   - Mulliken gross atomic charge
  VA   - Mayer's total valence
  BVA  - Mayer's bonded valence
  FA   - Mayer's free valence

  ATOM       NA         ZA         QA         VA         BVA        FA
  0 Fe    25.1632    26.0000     0.8368     4.8749     3.4346     1.4403
  1 O      8.5339     8.0000    -0.5339     1.9585     1.9558     0.0027
  2 O      8.4234     8.0000    -0.4234     2.0578     2.0439     0.0139
  3 O      8.4245     8.0000    -0.4245     2.0982     2.0722     0.0260
  4 C      5.7719     6.0000     0.2281     3.8971     3.8970     0.0000
  5 C      5.7447     6.0000     0.2553     3.8411     3.8409     0.0002
  6 C      5.8404     6.0000     0.1596     4.0106     4.0105     0.0001
  7 C      6.3677     6.0000    -0.3677     3.8778     3.8778     0.0000
  8 H      0.8971     1.0000     0.1029     0.9916     0.9916     0.0000
  9 H      0.8926     1.0000     0.1074     0.9797     0.9797     0.0000
 10 H      0.8550     1.0000     0.1450     1.0035     1.0035    -0.0000
 11 C      6.3795     6.0000    -0.3795     3.8672     3.8672    -0.0000
 12 H      0.8556     1.0000     0.1444     1.0131     1.0131     0.0000
 13 H      0.8939     1.0000     0.1061     0.9771     0.9771     0.0000
 14 H      0.9011     1.0000     0.0989     1.0014     1.0014     0.0000
 15 C      6.3359     6.0000    -0.3359     3.8151     3.8151     0.0000
 16 H      0.8652     1.0000     0.1348     1.0012     1.0012     0.0000
 17 H      0.8874     1.0000     0.1126     0.9758     0.9758     0.0000
 18 H      0.8896     1.0000     0.1104     0.9978     0.9978     0.0000
 19 C      6.3232     6.0000    -0.3232     3.8502     3.8502     0.0000
 20 H      0.8900     1.0000     0.1100     0.9824     0.9824     0.0000
 21 H      0.8964     1.0000     0.1036     0.9784     0.9784     0.0000
 22 H      0.8921     1.0000     0.1079     0.9868     0.9868     0.0000
 23 C      6.3752     6.0000    -0.3752     3.8837     3.8837     0.0000
 24 H      0.8681     1.0000     0.1319     1.0050     1.0050     0.0000
 25 H      0.8989     1.0000     0.1011     0.9773     0.9773     0.0000
 26 H      0.8979     1.0000     0.1021     0.9845     0.9845     0.0000
 27 C      6.3802     6.0000    -0.3802     3.8748     3.8748     0.0000
 28 H      0.8992     1.0000     0.1008     0.9862     0.9862     0.0000
 29 H      0.8959     1.0000     0.1041     0.9765     0.9765     0.0000
 30 H      0.8666     1.0000     0.1334     1.0000     1.0000     0.0000
 31 C      6.3324     6.0000    -0.3324     3.8692     3.8692     0.0000
 32 H      0.8530     1.0000     0.1470     1.0038     1.0038    -0.0000
 33 H      0.8954     1.0000     0.1046     0.9768     0.9768     0.0000
 34 H      0.9101     1.0000     0.0899     1.0164     1.0164     0.0000
 35 C      6.3387     6.0000    -0.3387     3.8462     3.8461     0.0001
 36 H      0.8886     1.0000     0.1114     0.9858     0.9858     0.0000
 37 H      0.8916     1.0000     0.1084     0.9792     0.9792     0.0000
 38 H      0.8885     1.0000     0.1115     0.9933     0.9933     0.0000
 39 C      6.3382     6.0000    -0.3382     3.8362     3.8361     0.0000
 40 H      0.8777     1.0000     0.1223     0.9835     0.9835     0.0000
 41 H      0.8932     1.0000     0.1068     0.9767     0.9767     0.0000
 42 H      0.8866     1.0000     0.1134     0.9831     0.9831     0.0000
 43 Fe    25.1632    26.0000     0.8368     4.8749     3.4346     1.4403
 44 O      8.5340     8.0000    -0.5340     1.9585     1.9557     0.0027
 45 O      8.4235     8.0000    -0.4235     2.0578     2.0438     0.0139
 46 O      8.4244     8.0000    -0.4244     2.0982     2.0722     0.0260
 47 C      5.7719     6.0000     0.2281     3.8969     3.8968     0.0000
 48 C      5.7446     6.0000     0.2554     3.8410     3.8409     0.0002
 49 C      5.8404     6.0000     0.1596     4.0107     4.0105     0.0001
 50 C      6.3677     6.0000    -0.3677     3.8778     3.8778     0.0000
 51 H      0.8971     1.0000     0.1029     0.9916     0.9916     0.0000
 52 H      0.8926     1.0000     0.1074     0.9797     0.9797     0.0000
 53 H      0.8550     1.0000     0.1450     1.0036     1.0036    -0.0000
 54 C      6.3796     6.0000    -0.3796     3.8672     3.8672    -0.0000
 55 H      0.8556     1.0000     0.1444     1.0130     1.0130     0.0000
 56 H      0.8939     1.0000     0.1061     0.9772     0.9771     0.0000
 57 H      0.9011     1.0000     0.0989     1.0014     1.0014     0.0000
 58 C      6.3360     6.0000    -0.3360     3.8152     3.8152     0.0000
 59 H      0.8652     1.0000     0.1348     1.0012     1.0012     0.0000
 60 H      0.8874     1.0000     0.1126     0.9758     0.9758     0.0000
 61 H      0.8895     1.0000     0.1105     0.9978     0.9978     0.0000
 62 C      6.3232     6.0000    -0.3232     3.8502     3.8502     0.0000
 63 H      0.8900     1.0000     0.1100     0.9824     0.9824     0.0000
 64 H      0.8964     1.0000     0.1036     0.9784     0.9784     0.0000
 65 H      0.8921     1.0000     0.1079     0.9868     0.9868     0.0000
 66 C      6.3752     6.0000    -0.3752     3.8837     3.8837     0.0000
 67 H      0.8681     1.0000     0.1319     1.0050     1.0050     0.0000
 68 H      0.8989     1.0000     0.1011     0.9773     0.9773     0.0000
 69 H      0.8979     1.0000     0.1021     0.9845     0.9845     0.0000
 70 C      6.3802     6.0000    -0.3802     3.8749     3.8748     0.0000
 71 H      0.8992     1.0000     0.1008     0.9862     0.9862     0.0000
 72 H      0.8959     1.0000     0.1041     0.9765     0.9765     0.0000
 73 H      0.8666     1.0000     0.1334     1.0000     1.0000     0.0000
 74 C      6.3323     6.0000    -0.3323     3.8691     3.8691     0.0000
 75 H      0.8530     1.0000     0.1470     1.0038     1.0038    -0.0000
 76 H      0.8954     1.0000     0.1046     0.9768     0.9768     0.0000
 77 H      0.9101     1.0000     0.0899     1.0164     1.0164     0.0000
 78 C      6.3387     6.0000    -0.3387     3.8461     3.8460     0.0001
 79 H      0.8886     1.0000     0.1114     0.9858     0.9858     0.0000
 80 H      0.8916     1.0000     0.1084     0.9792     0.9792     0.0000
 81 H      0.8885     1.0000     0.1115     0.9933     0.9933     0.0000
 82 C      6.3382     6.0000    -0.3382     3.8361     3.8361     0.0000
 83 H      0.8777     1.0000     0.1223     0.9835     0.9835     0.0000
 84 H      0.8932     1.0000     0.1068     0.9767     0.9767     0.0000
 85 H      0.8866     1.0000     0.1134     0.9831     0.9831     0.0000

  Mayer bond orders larger than 0.100000
B(  0-Fe,  1-O ) :   0.4716 B(  0-Fe,  2-O ) :   0.9346 B(  0-Fe,  3-O ) :   0.9333 
B(  0-Fe, 44-O ) :   0.5088 B(  1-O ,  4-C ) :   0.9001 B(  1-O , 43-Fe) :   0.5088 
B(  2-O ,  5-C ) :   0.9498 B(  3-O ,  6-C ) :   1.0011 B(  4-C ,  7-C ) :   0.9664 
B(  4-C , 11-C ) :   0.9633 B(  4-C , 15-C ) :   0.9753 B(  5-C , 19-C ) :   0.9458 
B(  5-C , 23-C ) :   0.9522 B(  5-C , 27-C ) :   0.9553 B(  6-C , 31-C ) :   0.9999 
B(  6-C , 35-C ) :   0.9508 B(  6-C , 39-C ) :   0.9470 B(  7-C ,  8-H ) :   0.9608 
B(  7-C ,  9-H ) :   0.9471 B(  7-C , 10-H ) :   0.9629 B( 11-C , 12-H ) :   0.9588 
B( 11-C , 13-H ) :   0.9490 B( 11-C , 14-H ) :   0.9659 B( 15-C , 16-H ) :   0.9564 
B( 15-C , 17-H ) :   0.9476 B( 15-C , 18-H ) :   0.9596 B( 19-C , 20-H ) :   0.9676 
B( 19-C , 21-H ) :   0.9629 B( 19-C , 22-H ) :   0.9699 B( 23-C , 24-H ) :   0.9710 
B( 23-C , 25-H ) :   0.9516 B( 23-C , 26-H ) :   0.9649 B( 27-C , 28-H ) :   0.9652 
B( 27-C , 29-H ) :   0.9505 B( 27-C , 30-H ) :   0.9663 B( 31-C , 32-H ) :   0.9563 
B( 31-C , 33-H ) :   0.9423 B( 31-C , 34-H ) :   0.9547 B( 35-C , 36-H ) :   0.9659 
B( 35-C , 37-H ) :   0.9578 B( 35-C , 38-H ) :   0.9666 B( 39-C , 40-H ) :   0.9706 
B( 39-C , 41-H ) :   0.9556 B( 39-C , 42-H ) :   0.9657 B( 43-Fe, 44-O ) :   0.4716 
B( 43-Fe, 45-O ) :   0.9346 B( 43-Fe, 46-O ) :   0.9333 B( 44-O , 47-C ) :   0.9000 
B( 45-O , 48-C ) :   0.9498 B( 46-O , 49-C ) :   1.0011 B( 47-C , 50-C ) :   0.9664 
B( 47-C , 54-C ) :   0.9633 B( 47-C , 58-C ) :   0.9753 B( 48-C , 62-C ) :   0.9458 
B( 48-C , 66-C ) :   0.9522 B( 48-C , 70-C ) :   0.9553 B( 49-C , 74-C ) :   0.9999 
B( 49-C , 78-C ) :   0.9508 B( 49-C , 82-C ) :   0.9470 B( 50-C , 51-H ) :   0.9608 
B( 50-C , 52-H ) :   0.9471 B( 50-C , 53-H ) :   0.9629 B( 54-C , 55-H ) :   0.9588 
B( 54-C , 56-H ) :   0.9490 B( 54-C , 57-H ) :   0.9659 B( 58-C , 59-H ) :   0.9564 
B( 58-C , 60-H ) :   0.9476 B( 58-C , 61-H ) :   0.9596 B( 62-C , 63-H ) :   0.9676 
B( 62-C , 64-H ) :   0.9629 B( 62-C , 65-H ) :   0.9699 B( 66-C , 67-H ) :   0.9710 
B( 66-C , 68-H ) :   0.9516 B( 66-C , 69-H ) :   0.9649 B( 70-C , 71-H ) :   0.9652 
B( 70-C , 72-H ) :   0.9505 B( 70-C , 73-H ) :   0.9663 B( 74-C , 75-H ) :   0.9563 
B( 74-C , 76-H ) :   0.9423 B( 74-C , 77-H ) :   0.9547 B( 78-C , 79-H ) :   0.9659 
B( 78-C , 80-H ) :   0.9578 B( 78-C , 81-H ) :   0.9666 B( 82-C , 83-H ) :   0.9706 
B( 82-C , 84-H ) :   0.9556 B( 82-C , 85-H ) :   0.9657 

-------
TIMINGS
-------

Total SCF time: 0 days 0 hours 4 min 9 sec 

Total time                  ....     249.221 sec
Sum of individual times     ....     227.774 sec  ( 91.4%)

Fock matrix formation       ....     149.562 sec  ( 60.0%)
  Split-RI-J                ....      92.695 sec  ( 62.0% of F)
  XC integration            ....      49.361 sec  ( 33.0% of F)
    Basis function eval.    ....       3.570 sec  (  7.2% of XC)
    Density eval.           ....      15.120 sec  ( 30.6% of XC)
    XC-Functional eval.     ....       0.375 sec  (  0.8% of XC)
    XC-Potential eval.      ....      14.242 sec  ( 28.9% of XC)
Diagonalization             ....      20.987 sec  (  8.4%)
Density matrix formation    ....       4.878 sec  (  2.0%)
Population analysis         ....       1.737 sec  (  0.7%)
Initial guess               ....       1.444 sec  (  0.6%)
Orbital Transformation      ....      26.984 sec  ( 10.8%)
Orbital Orthonormalization  ....       0.000 sec  (  0.0%)
DIIS solution               ....      19.147 sec  (  7.7%)
Grid generation             ....       2.884 sec  (  1.2%)

Maximum memory used throughout the entire SCF-calculation: 382.5 MB

-------------------------   --------------------
FINAL SINGLE POINT ENERGY     -3924.250364434072
-------------------------   --------------------


                            ***************************************
                            *     ORCA property calculations      *
                            ***************************************

                                    ---------------------
                                    Active property flags
                                    ---------------------
   (+) Dipole Moment


------------------------------------------------------------------------------
                       ORCA ELECTRIC PROPERTIES CALCULATION
------------------------------------------------------------------------------

Dipole Moment Calculation                       ... on
Quadrupole Moment Calculation                   ... off
Polarizability Calculation                      ... off
GBWName                                         ... Fe2_tert-butoxide_6_LowSpin.gbw
Electron density                                ... Fe2_tert-butoxide_6_LowSpin.scfp
The origin for moment calculation is the CENTER OF MASS  = (19.013920,  4.151509 14.505122)

-------------
DIPOLE MOMENT
-------------
                                X             Y             Z
Electronic contribution:     -0.00297      -0.00197      -0.00019
Nuclear contribution   :      0.00305       0.00209       0.00013
                        -----------------------------------------
Total Dipole Moment    :      0.00009       0.00012      -0.00006
                        -----------------------------------------
Magnitude (a.u.)       :      0.00016
Magnitude (Debye)      :      0.00041



--------------------
Rotational spectrum 
--------------------
 
Rotational constants in cm-1:     0.005265     0.003397     0.002980 
Rotational constants in MHz :   157.854055   101.825908    89.325442 

 Dipole components along the rotational axes: 
x,y,z [a.u.] :     0.000114     0.000113     0.000015 
x,y,z [Debye]:     0.000289     0.000287     0.000037 

 

Timings for individual modules:

Sum of individual times         ...      277.049 sec (=   4.617 min)
GTO integral calculation        ...       18.182 sec (=   0.303 min)   6.6 %
SCF iterations                  ...      258.867 sec (=   4.314 min)  93.4 %
                             ****ORCA TERMINATED NORMALLY****
TOTAL RUN TIME: 0 days 0 hours 4 minutes 51 seconds 953 msec
