
                                 *****************
                                 * O   R   C   A *
                                 *****************

                                            #,                                       
                                            ###                                      
                                            ####                                     
                                            #####                                    
                                            ######                                   
                                           ########,                                 
                                     ,,################,,,,,                         
                               ,,#################################,,                 
                          ,,##########################################,,             
                       ,#########################################, ''#####,          
                    ,#############################################,,   '####,        
                  ,##################################################,,,,####,       
                ,###########''''           ''''###############################       
              ,#####''   ,,,,##########,,,,          '''####'''          '####       
            ,##' ,,,,###########################,,,                        '##       
           ' ,,###''''                  '''############,,,                           
         ,,##''                                '''############,,,,        ,,,,,,###''
      ,#''                                            '''#######################'''  
     '                                                          ''''####''''         
             ,#######,   #######,   ,#######,      ##                                
            ,#'     '#,  ##    ##  ,#'     '#,    #''#        ######   ,####,        
            ##       ##  ##   ,#'  ##            #'  '#       #        #'  '#        
            ##       ##  #######   ##           ,######,      #####,   #    #        
            '#,     ,#'  ##    ##  '#,     ,#' ,#      #,         ##   #,  ,#        
             '#######'   ##     ##  '#######'  #'      '#     #####' # '####'        



                  #######################################################
                  #                        -***-                        #
                  #          Department of theory and spectroscopy      #
                  #    Directorship and core code : Frank Neese         #
                  #        Max Planck Institute fuer Kohlenforschung    #
                  #                Kaiser Wilhelm Platz 1               #
                  #                 D-45470 Muelheim/Ruhr               #
                  #                      Germany                        #
                  #                                                     #
                  #                  All rights reserved                #
                  #                        -***-                        #
                  #######################################################


                         Program Version 5.0.3 -  RELEASE  -


 With contributions from (in alphabetic order):
   Daniel Aravena         : Magnetic Suceptibility
   Michael Atanasov       : Ab Initio Ligand Field Theory (pilot matlab implementation)
   Alexander A. Auer      : GIAO ZORA, VPT2 properties, NMR spectrum
   Ute Becker             : Parallelization
   Giovanni Bistoni       : ED, misc. LED, open-shell LED, HFLD
   Martin Brehm           : Molecular dynamics
   Dmytro Bykov           : SCF Hessian
   Vijay G. Chilkuri      : MRCI spin determinant printing, contributions to CSF-ICE
   Dipayan Datta          : RHF DLPNO-CCSD density
   Achintya Kumar Dutta   : EOM-CC, STEOM-CC
   Dmitry Ganyushin       : Spin-Orbit,Spin-Spin,Magnetic field MRCI
   Miquel Garcia          : C-PCM and meta-GGA Hessian, CC/C-PCM, Gaussian charge scheme
   Yang Guo               : DLPNO-NEVPT2, F12-NEVPT2, CIM, IAO-localization
   Andreas Hansen         : Spin unrestricted coupled pair/coupled cluster methods
   Benjamin Helmich-Paris : MC-RPA, TRAH-SCF, COSX integrals
   Lee Huntington         : MR-EOM, pCC
   Robert Izsak           : Overlap fitted RIJCOSX, COSX-SCS-MP3, EOM
   Marcus Kettner         : VPT2
   Christian Kollmar      : KDIIS, OOCD, Brueckner-CCSD(T), CCSD density, CASPT2, CASPT2-K
   Simone Kossmann        : Meta GGA functionals, TD-DFT gradient, OOMP2, MP2 Hessian
   Martin Krupicka        : Initial AUTO-CI
   Lucas Lang             : DCDCAS
   Marvin Lechner         : AUTO-CI (C++ implementation), FIC-MRCC
   Dagmar Lenk            : GEPOL surface, SMD
   Dimitrios Liakos       : Extrapolation schemes; Compound Job, initial MDCI parallelization
   Dimitrios Manganas     : Further ROCIS development; embedding schemes
   Dimitrios Pantazis     : SARC Basis sets
   Anastasios Papadopoulos: AUTO-CI, single reference methods and gradients
   Taras Petrenko         : DFT Hessian,TD-DFT gradient, ASA, ECA, R-Raman, ABS, FL, XAS/XES, NRVS
   Peter Pinski           : DLPNO-MP2, DLPNO-MP2 Gradient
   Christoph Reimann      : Effective Core Potentials
   Marius Retegan         : Local ZFS, SOC
   Christoph Riplinger    : Optimizer, TS searches, QM/MM, DLPNO-CCSD(T), (RO)-DLPNO pert. Triples
   Tobias Risthaus        : Range-separated hybrids, TD-DFT gradient, RPA, STAB
   Michael Roemelt        : Original ROCIS implementation
   Masaaki Saitow         : Open-shell DLPNO-CCSD energy and density
   Barbara Sandhoefer     : DKH picture change effects
   Avijit Sen             : IP-ROCIS
   Kantharuban Sivalingam : CASSCF convergence, NEVPT2, FIC-MRCI
   Bernardo de Souza      : ESD, SOC TD-DFT
   Georgi Stoychev        : AutoAux, RI-MP2 NMR, DLPNO-MP2 response
   Willem Van den Heuvel  : Paramagnetic NMR
   Boris Wezisla          : Elementary symmetry handling
   Frank Wennmohs         : Technical directorship


 We gratefully acknowledge several colleagues who have allowed us to
 interface, adapt or use parts of their codes:
   Stefan Grimme, W. Hujo, H. Kruse, P. Pracht,  : VdW corrections, initial TS optimization,
                  C. Bannwarth, S. Ehlert          DFT functionals, gCP, sTDA/sTD-DF
   Ed Valeev, F. Pavosevic, A. Kumar             : LibInt (2-el integral package), F12 methods
   Garnet Chan, S. Sharma, J. Yang, R. Olivares  : DMRG
   Ulf Ekstrom                                   : XCFun DFT Library
   Mihaly Kallay                                 : mrcc  (arbitrary order and MRCC methods)
   Jiri Pittner, Ondrej Demel                    : Mk-CCSD
   Frank Weinhold                                : gennbo (NPA and NBO analysis)
   Christopher J. Cramer and Donald G. Truhlar   : smd solvation model
   Lars Goerigk                                  : TD-DFT with DH, B97 family of functionals
   V. Asgeirsson, H. Jonsson                     : NEB implementation
   FAccTs GmbH                                   : IRC, NEB, NEB-TS, DLPNO-Multilevel, CI-OPT
                                                   MM, QMMM, 2- and 3-layer-ONIOM, Crystal-QMMM,
                                                   LR-CPCM, SF, NACMEs, symmetry and pop. for TD-DFT,
                                                   nearIR, NL-DFT gradient (VV10), updates on ESD,
                                                   ML-optimized integration grids
   S Lehtola, MJT Oliveira, MAL Marques          : LibXC Library
   Liviu Ungur et al                             : ANISO software


 Your calculation uses the libint2 library for the computation of 2-el integrals
 For citations please refer to: http://libint.valeyev.net

 Your ORCA version has been built with support for libXC version: 5.1.0
 For citations please refer to: https://tddft.org/programs/libxc/

 This ORCA versions uses:
   CBLAS   interface :  Fast vector & matrix operations
   LAPACKE interface :  Fast linear algebra routines
   SCALAPACK package :  Parallel linear algebra routines
   Shared memory     :  Shared parallel matrices
   BLAS/LAPACK       :  OpenBLAS 0.3.15  USE64BITINT DYNAMIC_ARCH NO_AFFINITY Zen SINGLE_THREADED
        Core in use  :  Zen
   Copyright (c) 2011-2014, The OpenBLAS Project


================================================================================

----- Orbital basis set information -----
Your calculation utilizes the basis: def2-TZVP
   F. Weigend and R. Ahlrichs, Phys. Chem. Chem. Phys. 7, 3297 (2005).

----- AuxJ basis set information -----
Your calculation utilizes the auxiliary basis: def2/J
   F. Weigend, Phys. Chem. Chem. Phys. 8, 1057 (2006).

================================================================================
                                        WARNINGS
                       Please study these warnings very carefully!
================================================================================


WARNING: your system is open-shell and RHF/RKS was chosen
  ===> : WILL SWITCH to UHF/UKS


INFO   : the flag for use of the SHARK integral package has been found!

================================================================================
                                       INPUT FILE
================================================================================
NAME = Fe3_O_piv_6_H2O_3_HighSpin.inp
|  1> ! PBE def2-TZVP
|  2> %pal nprocs 32 end
|  3> %maxcore 3000
|  4> 
|  5> * xyz 1 16
|  6>   Fe  12.51580855333414      2.88403168619080     24.91624293022003
|  7>   Fe  11.60275598719965      4.32214639943877     22.09293082892330
|  8>   Fe  10.16355260919785      5.18940754557936     24.93389204689304
|  9>   O   11.41812777199648      4.12520527014844     23.97644367605020
| 10>   O   13.83654550063193      1.46143428198198     25.87263249420692
| 11>   H   14.02088265657847      0.76262839865441     25.23360327684224
| 12>   H   14.67835581199560      1.87825801914147     26.08905060942523
| 13>   O   11.72799141719266      4.68322307321109     19.96015818651361
| 14>   H   11.71951266259791      5.64341033355607     19.85970012679448
| 15>   H   10.93460199519731      4.34959836849221     19.52617293208558
| 16>   O   8.74800089787680      6.32944181185136     26.11825872835422
| 17>   H   8.37925200225604      5.72273047376417     26.77183647247276
| 18>   H   9.21135590650167      7.01971458560793     26.60564664776648
| 19>   O   14.22941626829677      3.56730629109252     24.05738852160604
| 20>   O   13.58309254927838      4.51504268495859     22.15012277572739
| 21>   O   12.43165966049885      1.40888193294527     23.54056876204164
| 22>   O   11.73402961617247      2.37181408845474     21.66044598043220
| 23>   O   11.45939721039227      6.36328281295201     22.07886948012195
| 24>   O   10.57788535664169      6.92316689435624     24.04361588788639
| 25>   O   9.61380970031718      4.21031589068399     21.73122108201669
| 26>   O   8.67151110242603      4.81176481387869     23.65665615215103
| 27>   O   11.46978340507133      5.72122059022535     26.40477658040868
| 28>   O   12.94380970777123      4.05577386820541     26.48117712922393
| 29>   O   9.49090792579554      3.69972130991925     26.12913377328490
| 30>   O   10.98187949078931      2.06214544835438     25.90456640264091
| 31>   C   14.45475672439291      4.23653692136795     23.01730720690603
| 32>   C   15.86230781532453      4.77204932645144     22.77445531339533
| 33>   C   16.32698720395994      4.31544122782150     21.38949281176374
| 34>   H   15.64195250073956      4.65286190796892     20.61156739175980
| 35>   H   16.40215157284261      3.22651785996125     21.33365688849199
| 36>   H   17.31664595911523      4.72908549568926     21.18384989422879
| 37>   C   15.77188986663456      6.30247401857367     22.80695995210445
| 38>   H   15.07707117659443      6.66946778231373     22.05053126671055
| 39>   H   16.75763015585430      6.72781053416618     22.60619766888594
| 40>   H   15.44461926039623      6.66239181066919     23.78610808765363
| 41>   C   16.83188631652137      4.28459143487441     23.84222916711062
| 42>   H   16.91264645212384      3.19580191702880     23.84150545562731
| 43>   H   16.52383192184307      4.60301406090390     24.83956245876750
| 44>   H   17.82541046175607      4.69360546238596     23.64650992435987
| 45>   C   12.09202095339792      1.36776727544581     22.32632277410768
| 46>   C   12.06934816145722      0.00396336538004     21.64554783001531
| 47>   C   10.71522393460997     -0.62369310527787     22.00752210304449
| 48>   H   9.88644232194376     -0.01842309812812     21.63344929433530
| 49>   H   10.60813272962732     -0.73528979878282     23.08847728717674
| 50>   H   10.64223515680936     -1.61422042835216     21.55304797883684
| 51>   C   13.20030763895133     -0.87251155188780     22.17786998406990
| 52>   H   14.17824177407157     -0.42677578437285     21.97923729193879
| 53>   H   13.17213950589104     -1.84463426606229     21.68149178665637
| 54>   H   13.10406670232171     -1.04048545116636     23.25107105430819
| 55>   C   12.18599426773962      0.15430301767390     20.13295686750315
| 56>   H   13.12404366584543      0.63725720655430     19.85080370095654
| 57>   H   11.36646966896389      0.74681406862575     19.72663697750703
| 58>   H   12.16032990626703     -0.83232683411797     19.66551572712422
| 59>   C   11.06877097914174      7.21333761954643     22.91940211845455
| 60>   C   11.17494075941568      8.69577638206376     22.57621908603697
| 61>   C   11.85936699838155      8.90611109416381     21.23241352731629
| 62>   H   11.94752807534097      9.97593034565793     21.03211286753245
| 63>   H   11.28537825896604      8.46255271654541     20.41617124385236
| 64>   H   12.86239781171988      8.47612798992927     21.22092045934276
| 65>   C   9.75060147874265      9.26093897753466     22.53443524511824
| 66>   H   9.78935460800300     10.32758870658954     22.30331036703504
| 67>   H   9.24595407246772      9.13372664062780     23.49274523710055
| 68>   H   9.15125743997280      8.77295722864873     21.76138704180636
| 69>   C   11.97379547925344      9.38674984700719     23.68497439726232
| 70>   H   12.02475355062850     10.45868202622768     23.48253859962788
| 71>   H   12.99730436594063      9.00631188228615     23.73312357448975
| 72>   H   11.50538425037843      9.23991455298866     24.65827252409198
| 73>   C   8.60981010376364      4.39537215784424     22.47242714902757
| 74>   C   7.23955047799463      4.06723488360388     21.88754576713183
| 75>   C   7.18637928197693      2.54459078121004     21.70708066813431
| 76>   H   6.22802315210373      2.26474718507088     21.26415658472581
| 77>   H   7.27507666214723      2.02809083966620     22.66614224873939
| 78>   H   7.98498842227068      2.19703441331888     21.04963239516718
| 79>   C   7.10074261812230      4.75200522848106     20.52697058666813
| 80>   H   6.12972791858041      4.50408730559306     20.09334961147662
| 81>   H   7.87605954715698      4.42237782935285     19.83460638835954
| 82>   H   7.15685406593197      5.83944204327829     20.62034160680169
| 83>   C   6.12323215648636      4.52042475509714     22.81882230546910
| 84>   H   5.15675771343755      4.26995000831661     22.37597036219365
| 85>   H   6.15279056879916      5.59870244057380     22.98480236677161
| 86>   H   6.19003689988226      4.03089511479104     23.79115442198649
| 87>   C   12.47266879195527      5.14637654146992     26.90086020320233
| 88>   C   13.12797789714557      5.78651100077421     28.12094331947698
| 89>   C   13.11085496698070      7.30757064554316     27.99008622530507
| 90>   H   13.68193759112112      7.63988416138936     27.11987760352618
| 91>   H   13.56113742071199      7.75550192742551     28.87836993100480
| 92>   H   12.09442378280027      7.68877125268720     27.89284011481065
| 93>   C   12.28196420215828      5.35939179291373     29.32909703926969
| 94>   H   12.26978432736143      4.27271797378762     29.44123848092094
| 95>   H   11.25271254469064      5.71281017144694     29.23797920168350
| 96>   H   12.70700533074074      5.78705561968955     30.23982522152606
| 97>   C   14.55797654545936      5.28823414889809     28.29598781125622
| 98>   H   15.00442663680025      5.76309064852574     29.17222301787140
| 99>   H   15.17537050204248      5.53372558334239     27.42899210314281
|100>   H   14.58936199036599      4.20831379206728     28.44209983759377
|101>   C   9.89539823250884      2.52175498364417     26.33683153810340
|102>   C   8.98235967368389      1.58564061251022     27.12033699649103
|103>   C   7.98076744737727      1.02546055038630     26.09927441553236
|104>   H   7.28607420658639      0.35270176059794     26.60690717375983
|105>   H   8.49040884038429      0.45787851034557     25.31719935550316
|106>   H   7.40246872802675      1.82594572365906     25.63305315066467
|107>   C   8.23402828935255      2.35794092005281     28.20440401470087
|108>   H   7.59322099099648      1.67204433507731     28.76229836853729
|109>   H   7.60162030966650      3.13678745565119     27.77720540771571
|110>   H   8.92406800776097      2.82067039053188     28.91458800119019
|111>   C   9.78010816638728      0.44447650897798     27.74046939573173
|112>   H   9.10131745362964     -0.22710862333913     28.27044204261625
|113>   H   10.51615148951183      0.81440885767647     28.45764158381950
|114>   H   10.31066137477955     -0.13081849110087     26.98216406388046
|115> *
|116> 
|117>                          ****END OF INPUT****
================================================================================

                       ****************************
                       * Single Point Calculation *
                       ****************************

---------------------------------
CARTESIAN COORDINATES (ANGSTROEM)
---------------------------------
  Fe    12.515809    2.884032   24.916243
  Fe    11.602756    4.322146   22.092931
  Fe    10.163553    5.189408   24.933892
  O     11.418128    4.125205   23.976444
  O     13.836546    1.461434   25.872632
  H     14.020883    0.762628   25.233603
  H     14.678356    1.878258   26.089051
  O     11.727991    4.683223   19.960158
  H     11.719513    5.643410   19.859700
  H     10.934602    4.349598   19.526173
  O      8.748001    6.329442   26.118259
  H      8.379252    5.722730   26.771836
  H      9.211356    7.019715   26.605647
  O     14.229416    3.567306   24.057389
  O     13.583093    4.515043   22.150123
  O     12.431660    1.408882   23.540569
  O     11.734030    2.371814   21.660446
  O     11.459397    6.363283   22.078869
  O     10.577885    6.923167   24.043616
  O      9.613810    4.210316   21.731221
  O      8.671511    4.811765   23.656656
  O     11.469783    5.721221   26.404777
  O     12.943810    4.055774   26.481177
  O      9.490908    3.699721   26.129134
  O     10.981879    2.062145   25.904566
  C     14.454757    4.236537   23.017307
  C     15.862308    4.772049   22.774455
  C     16.326987    4.315441   21.389493
  H     15.641953    4.652862   20.611567
  H     16.402152    3.226518   21.333657
  H     17.316646    4.729085   21.183850
  C     15.771890    6.302474   22.806960
  H     15.077071    6.669468   22.050531
  H     16.757630    6.727811   22.606198
  H     15.444619    6.662392   23.786108
  C     16.831886    4.284591   23.842229
  H     16.912646    3.195802   23.841505
  H     16.523832    4.603014   24.839562
  H     17.825410    4.693605   23.646510
  C     12.092021    1.367767   22.326323
  C     12.069348    0.003963   21.645548
  C     10.715224   -0.623693   22.007522
  H      9.886442   -0.018423   21.633449
  H     10.608133   -0.735290   23.088477
  H     10.642235   -1.614220   21.553048
  C     13.200308   -0.872512   22.177870
  H     14.178242   -0.426776   21.979237
  H     13.172140   -1.844634   21.681492
  H     13.104067   -1.040485   23.251071
  C     12.185994    0.154303   20.132957
  H     13.124044    0.637257   19.850804
  H     11.366470    0.746814   19.726637
  H     12.160330   -0.832327   19.665516
  C     11.068771    7.213338   22.919402
  C     11.174941    8.695776   22.576219
  C     11.859367    8.906111   21.232414
  H     11.947528    9.975930   21.032113
  H     11.285378    8.462553   20.416171
  H     12.862398    8.476128   21.220920
  C      9.750601    9.260939   22.534435
  H      9.789355   10.327589   22.303310
  H      9.245954    9.133727   23.492745
  H      9.151257    8.772957   21.761387
  C     11.973795    9.386750   23.684974
  H     12.024754   10.458682   23.482539
  H     12.997304    9.006312   23.733124
  H     11.505384    9.239915   24.658273
  C      8.609810    4.395372   22.472427
  C      7.239550    4.067235   21.887546
  C      7.186379    2.544591   21.707081
  H      6.228023    2.264747   21.264157
  H      7.275077    2.028091   22.666142
  H      7.984988    2.197034   21.049632
  C      7.100743    4.752005   20.526971
  H      6.129728    4.504087   20.093350
  H      7.876060    4.422378   19.834606
  H      7.156854    5.839442   20.620342
  C      6.123232    4.520425   22.818822
  H      5.156758    4.269950   22.375970
  H      6.152791    5.598702   22.984802
  H      6.190037    4.030895   23.791154
  C     12.472669    5.146377   26.900860
  C     13.127978    5.786511   28.120943
  C     13.110855    7.307571   27.990086
  H     13.681938    7.639884   27.119878
  H     13.561137    7.755502   28.878370
  H     12.094424    7.688771   27.892840
  C     12.281964    5.359392   29.329097
  H     12.269784    4.272718   29.441238
  H     11.252713    5.712810   29.237979
  H     12.707005    5.787056   30.239825
  C     14.557977    5.288234   28.295988
  H     15.004427    5.763091   29.172223
  H     15.175371    5.533726   27.428992
  H     14.589362    4.208314   28.442100
  C      9.895398    2.521755   26.336832
  C      8.982360    1.585641   27.120337
  C      7.980767    1.025461   26.099274
  H      7.286074    0.352702   26.606907
  H      8.490409    0.457879   25.317199
  H      7.402469    1.825946   25.633053
  C      8.234028    2.357941   28.204404
  H      7.593221    1.672044   28.762298
  H      7.601620    3.136787   27.777205
  H      8.924068    2.820670   28.914588
  C      9.780108    0.444477   27.740469
  H      9.101317   -0.227109   28.270442
  H     10.516151    0.814409   28.457642
  H     10.310661   -0.130818   26.982164

----------------------------
CARTESIAN COORDINATES (A.U.)
----------------------------
  NO LB      ZA    FRAG     MASS         X           Y           Z
   0 Fe   26.0000    0    55.850   23.651451    5.450030   47.084875
   1 Fe   26.0000    0    55.850   21.926031    8.167673   41.749589
   2 Fe   26.0000    0    55.850   19.206331    9.806559   47.118227
   3 O     8.0000    0    15.999   21.577134    7.795508   45.308912
   4 O     8.0000    0    15.999   26.147282    2.761711   48.892190
   5 H     1.0000    0     1.008   26.495628    1.441159   47.684600
   6 H     1.0000    0     1.008   27.738073    3.549393   49.301161
   7 O     8.0000    0    15.999   22.162692    8.850009   37.719233
   8 H     1.0000    0     1.008   22.146669   10.664500   37.529394
   9 H     1.0000    0     1.008   20.663403    8.219550   36.899119
  10 O     8.0000    0    15.999   16.531326   11.960912   49.356356
  11 H     1.0000    0     1.008   15.834491   10.814393   50.591439
  12 H     1.0000    0     1.008   17.406940   13.265338   50.277386
  13 O     8.0000    0    15.999   26.889700    6.741232   45.461876
  14 O     8.0000    0    15.999   25.668325    8.532194   41.857666
  15 O     8.0000    0    15.999   23.492432    2.662401   44.485228
  16 O     8.0000    0    15.999   22.174102    4.482079   40.932311
  17 O     8.0000    0    15.999   21.655122   12.024862   41.723017
  18 O     8.0000    0    15.999   19.989306   13.082889   45.435849
  19 O     8.0000    0    15.999   18.167467    7.956344   41.066056
  20 O     8.0000    0    15.999   16.386781    9.092918   44.704601
  21 O     8.0000    0    15.999   21.674749   10.811540   49.897796
  22 O     8.0000    0    15.999   24.460255    7.664302   50.042172
  23 O     8.0000    0    15.999   17.935217    6.991460   49.376907
  24 O     8.0000    0    15.999   20.752745    3.896890   48.952536
  25 C     6.0000    0    12.011   27.315532    8.005895   43.496407
  26 C     6.0000    0    12.011   29.975418    9.017866   43.037483
  27 C     6.0000    0    12.011   30.853534    8.155002   40.420284
  28 H     1.0000    0     1.008   29.559006    8.792635   38.950218
  29 H     1.0000    0     1.008   30.995574    6.097235   40.314769
  30 H     1.0000    0     1.008   32.723718    8.936676   40.031675
  31 C     6.0000    0    12.011   29.804552   11.909950   43.098908
  32 H     1.0000    0     1.008   28.491535   12.603468   41.669465
  33 H     1.0000    0     1.008   31.667332   12.713719   42.719523
  34 H     1.0000    0     1.008   29.186101   12.590096   44.949230
  35 C     6.0000    0    12.011   31.807655    8.096704   45.055284
  36 H     1.0000    0     1.008   31.960270    6.039190   45.053916
  37 H     1.0000    0     1.008   31.225517    8.698436   46.939970
  38 H     1.0000    0     1.008   33.685144    8.869629   44.685428
  39 C     6.0000    0    12.011   22.850608    2.584706   42.190636
  40 C     6.0000    0    12.011   22.807763    0.007490   40.904157
  41 C     6.0000    0    12.011   20.248839   -1.178609   41.588190
  42 H     1.0000    0     1.008   18.682668   -0.034815   40.881294
  43 H     1.0000    0     1.008   20.046466   -1.389496   43.630899
  44 H     1.0000    0     1.008   20.110910   -3.050435   40.729358
  45 C     6.0000    0    12.011   24.944966   -1.648808   41.910101
  46 H     1.0000    0     1.008   26.792994   -0.806489   41.534739
  47 H     1.0000    0     1.008   24.891736   -3.485854   40.972082
  48 H     1.0000    0     1.008   24.763097   -1.966233   43.938157
  49 C     6.0000    0    12.011   23.028192    0.291590   38.045775
  50 H     1.0000    0     1.008   24.800848    1.204242   37.512583
  51 H     1.0000    0     1.008   21.479515    1.411274   37.277941
  52 H     1.0000    0     1.008   22.979693   -1.572870   37.162439
  53 C     6.0000    0    12.011   20.916946   13.631233   43.311393
  54 C     6.0000    0    12.011   21.117578   16.432636   42.662871
  55 C     6.0000    0    12.011   22.410956   16.830111   40.123447
  56 H     1.0000    0     1.008   22.577556   18.851776   39.744933
  57 H     1.0000    0     1.008   21.326274   15.991907   38.580972
  58 H     1.0000    0     1.008   24.306409   16.017561   40.101728
  59 C     6.0000    0    12.011   18.425966   17.500638   42.583911
  60 H     1.0000    0     1.008   18.499199   19.516314   42.147148
  61 H     1.0000    0     1.008   17.472321   17.260242   44.394855
  62 H     1.0000    0     1.008   17.293370   16.578487   41.123062
  63 C     6.0000    0    12.011   22.627194   17.738386   44.758115
  64 H     1.0000    0     1.008   22.723491   19.764045   44.375567
  65 H     1.0000    0     1.008   24.561346   17.019463   44.849104
  66 H     1.0000    0     1.008   21.742025   17.460908   46.597382
  67 C     6.0000    0    12.011   16.270183    8.306050   42.466733
  68 C     6.0000    0    12.011   13.680768    7.685960   41.361467
  69 C     6.0000    0    12.011   13.580289    4.808580   41.020438
  70 H     1.0000    0     1.008   11.769258    4.279752   40.183432
  71 H     1.0000    0     1.008   13.747902    3.832536   42.832801
  72 H     1.0000    0     1.008   15.089441    4.151793   39.778040
  73 C     6.0000    0    12.011   13.418459    8.979988   38.790353
  74 H     1.0000    0     1.008   11.583507    8.511491   37.970928
  75 H     1.0000    0     1.008   14.883596    8.357083   37.481974
  76 H     1.0000    0     1.008   13.524494   11.034946   38.966798
  77 C     6.0000    0    12.011   11.571232    8.542365   43.121325
  78 H     1.0000    0     1.008    9.744860    8.069036   42.284456
  79 H     1.0000    0     1.008   11.627089   10.580014   43.434982
  80 H     1.0000    0     1.008   11.697474    7.617288   44.958766
  81 C     6.0000    0    12.011   23.569928    9.725242   50.835259
  82 C     6.0000    0    12.011   24.808283   10.934921   53.140882
  83 C     6.0000    0    12.011   24.775925   13.809307   52.893597
  84 H     1.0000    0     1.008   25.855115   14.437289   51.249141
  85 H     1.0000    0     1.008   25.626836   14.655775   54.572210
  86 H     1.0000    0     1.008   22.855149   14.529672   52.709829
  87 C     6.0000    0    12.011   23.209549   10.127783   55.423961
  88 H     1.0000    0     1.008   23.186532    8.074267   55.635878
  89 H     1.0000    0     1.008   21.264545   10.795647   55.251773
  90 H     1.0000    0     1.008   24.012760   10.935950   57.144988
  91 C     6.0000    0    12.011   27.510589    9.993314   53.471668
  92 H     1.0000    0     1.008   28.354257   10.890663   55.127512
  93 H     1.0000    0     1.008   28.677294   10.457226   51.833283
  94 H     1.0000    0     1.008   27.569899    7.952561   53.747779
  95 C     6.0000    0    12.011   18.699593    4.765426   49.769399
  96 C     6.0000    0    12.011   16.974200    2.996427   51.250010
  97 C     6.0000    0    12.011   15.081465    1.937840   49.320481
  98 H     1.0000    0     1.008   13.768685    0.666510   50.279768
  99 H     1.0000    0     1.008   16.044547    0.865265   47.842573
 100 H     1.0000    0     1.008   13.988639    3.450537   48.439450
 101 C     6.0000    0    12.011   15.560058    4.455863   53.298599
 102 H     1.0000    0     1.008   14.349108    3.159706   54.352867
 103 H     1.0000    0     1.008   14.364981    5.927669   52.491311
 104 H     1.0000    0     1.008   16.864045    5.330295   54.640653
 105 C     6.0000    0    12.011   18.481726    0.839939   52.421890
 106 H     1.0000    0     1.008   17.198997   -0.429173   53.423393
 107 H     1.0000    0     1.008   19.872646    1.539010   53.777149
 108 H     1.0000    0     1.008   19.484326   -0.247211   50.988901

--------------------------------
INTERNAL COORDINATES (ANGSTROEM)
--------------------------------
 Fe     0   0   0     0.000000000000     0.00000000     0.00000000
 Fe     1   0   0     3.297412643015     0.00000000     0.00000000
 Fe     1   2   0     3.293657142311    60.10334748     0.00000000
 O      2   1   3     1.902759583223    30.02207416   359.29319679
 O      1   2   3     2.163980234781   146.52509830   181.94527671
 H      5   1   2     0.964711454416   107.46147277   328.50084460
 H      5   1   2     0.963962358587   110.36184757    85.03213757
 O      2   1   3     2.166743967680   154.08864547   176.80624620
 H      8   2   1     0.965465320957   105.52425481   227.48457205
 H      8   2   1     0.963906333413   109.75044680   112.66936043
 O      3   1   2     2.169375304518   146.80029400   179.24962045
 H     11   3   1     0.965006872199   106.78027491   320.60142116
 H     11   3   1     0.963701899031   109.80296006    76.20920704
 O      1   2   3     2.034931566829    74.05952275   232.66634649
 O      2   1   3     1.990530782192    75.05936591   127.85615408
 O      1   2   3     2.018818279999    73.95995993   138.40077275
 O      2   1   3     2.002016991213    75.04461815   224.12393186
 O      2   1   3     2.046212921225   117.40878227    47.61927412
 O      3   1   2     1.992532244249   117.26709156   308.16059317
 O      2   1   3     2.024659807424   113.63391854   305.58341222
 O      3   1   2     2.000033355110   113.40314056    53.51926815
 O      3   1   2     2.037784413887    74.26103026   229.08507860
 O      1   2   3     2.001295524535   118.25495853   310.62694758
 O      3   1   2     2.024899685252    74.06573020   135.78138820
 O      1   2   3     2.001304235493   112.93654170    55.09625704
 C     14   1   2     1.257146411060   132.75546277     3.79493958
 C     26  14   1     1.525434578002   118.94632844   170.39391982
 C     27  26  14     1.530535534015   108.63099668   126.19061591
 H     28  27  26     1.090088629009   111.26136268    57.58143434
 H     28  27  26     1.092941642426   111.36720485   296.55941308
 H     28  27  26     1.092160721473   109.42074906   177.50290820
 C     27  26  14     1.533437868073   107.01269863   244.39846565
 H     32  27  26     1.090707014161   111.01876271   301.33658735
 H     32  27  26     1.092199873490   109.36304078   181.71025510
 H     32  27  26     1.093333406662   111.41863527    62.57194630
 C     27  26  14     1.522444964103   111.32037851     4.63765849
 H     36  27  26     1.091780810159   111.46591808    61.41606620
 H     36  27  26     1.091313050181   111.57775380   300.31357335
 H     36  27  26     1.092102890688   109.49740989   180.63376741
 C     17   2   1     1.256845139465   133.03664391   356.42599224
 C     40  17   2     1.524444057717   118.28457332   180.36977698
 C     41  40  17     1.535783331472   105.87153958   265.21718544
 H     42  41  40     1.092319188362   111.21164807    61.31198046
 H     42  41  40     1.091964494976   111.19579311   299.97479764
 H     42  41  40     1.092253848250   109.35836339   180.52328167
 C     41  40  17     1.526644849345   110.29706802   146.66179376
 H     46  41  40     1.092927487741   111.42913027   299.03523350
 H     46  41  40     1.091882470782   109.48260048   180.03803857
 H     46  41  40     1.090521932784   111.48162601    60.67833512
 C     41  40  17     1.524512953384   110.71496303    24.37545683
 H     50  41  40     1.092150095562   111.44770723    60.97867767
 H     50  41  40     1.089855846663   111.46804725   300.22233152
 H     50  41  40     1.092061510912   109.49933114   180.41359417
 C     18   2   1     1.257647463663   133.74102469   322.63140649
 C     54  18   2     1.525343010800   119.00660600   176.80148006
 C     55  54  18     1.522659957885   111.35204851   356.08460308
 H     56  55  54     1.091973424891   109.48183071   181.77963641
 H     56  55  54     1.091997514945   111.54910515    62.72977449
 H     56  55  54     1.091369952420   111.59112656   301.34921499
 C     55  54  18     1.532937387876   107.44373422   116.64816456
 H     60  55  54     1.092090728277   109.44416578   179.26798848
 H     60  55  54     1.090509066471   111.28569083    59.42882764
 H     60  55  54     1.093134478780   111.35427382   298.36047494
 C     55  54  18     1.531323457939   108.17635412   235.08396822
 H     64  55  54     1.092069399833   109.45290132   182.49126722
 H     64  55  54     1.092987570559   111.30617576    63.39868295
 H     64  55  54     1.090082073330   111.19444986   302.38690518
 C     21   3   1     1.256816688732   134.49966755   317.19999909
 C     68  21   3     1.525572595338   118.46349648   172.34911745
 C     69  68  21     1.534222894692   106.83955228   248.87341645
 H     70  69  68     1.092218226193   109.41402982   181.46926893
 H     70  69  68     1.092903714998   111.28415432    62.42534029
 H     70  69  68     1.091242511750   111.19827185   301.22480912
 C     69  68  21     1.529491048970   109.04194409   130.41960240
 H     74  69  68     1.091952376865   109.40868698   178.83253167
 H     74  69  68     1.090476384799   111.40390880    59.30646191
 H     74  69  68     1.092879438983   111.39661081   297.90581059
 C     69  68  21     1.522768414900   111.09854042     8.85092042
 H     78  69  68     1.092212566996   109.41887897   180.17390970
 H     78  69  68     1.091377958127   111.54250927    60.49997682
 H     78  69  68     1.090656631250   111.51458053   299.87074497
 C     22   3   1     1.257904503696   132.56690779   353.03922063
 C     82  22   3     1.525714573553   117.77958178   186.99662598
 C     83  82  22     1.526774121073   110.15965166   322.46920973
 H     84  83  82     1.092625590872   111.43240481   298.03667320
 H     84  83  82     1.091991146136   109.53103050   178.70559147
 H     84  83  82     1.089909657296   111.50309508    58.87333641
 C     83  82  22     1.535514702137   106.01227281    81.17852290
 H     88  83  82     1.092512719130   111.32011106    60.54481795
 H     88  83  82     1.092046695435   111.32221407   299.14272771
 H     88  83  82     1.092237214013   109.43487464   179.79004546
 C     83  82  22     1.524406943502   110.95251178   200.10751797
 H     92  83  82     1.092059758717   109.48139411   179.81425740
 H     92  83  82     1.092301652428   111.44532468    60.47094903
 H     92  83  82     1.090211790200   111.47993645   299.43049802
 C     25   1   2     1.256397865670   133.03790131   303.38435533
 C     96  25   1     1.524411469738   118.04306289   182.97682880
 C     97  96  25     1.536085116142   105.83301940   265.03502800
 H     98  97  96     1.092196916890   109.29399866   180.74248689
 H     98  97  96     1.092485753300   111.17005447    61.58994804
 H     98  97  96     1.092047704657   111.20833159   300.19444750
 C     97  96  25     1.526973780317   110.35490505   146.43964568
 H    102  97  96     1.091940579404   109.42839045   180.58387548
 H    102  97  96     1.090431303932   111.55162791    61.17856247
 H    102  97  96     1.092993444855   111.47027718   299.63791675
 C     97  96  25     1.524212046071   110.81745616    24.01131819
 H    106  97  96     1.092087188882   109.42304741   181.66309917
 H    106  97  96     1.092220519628   111.48606704    62.29993536
 H    106  97  96     1.089714650890   111.52824818   301.59084980

---------------------------
INTERNAL COORDINATES (A.U.)
---------------------------
 Fe     0   0   0     0.000000000000     0.00000000     0.00000000
 Fe     1   0   0     6.231206845827     0.00000000     0.00000000
 Fe     1   2   0     6.224109978001    60.10334748     0.00000000
 O      2   1   3     3.595694510986    30.02207416   359.29319679
 O      1   2   3     4.089330002954   146.52509830   181.94527671
 H      5   1   2     1.823040447103   107.46147277   328.50084460
 H      5   1   2     1.821624861138   110.36184757    85.03213757
 O      2   1   3     4.094552701242   154.08864547   176.80624620
 H      8   2   1     1.824465048407   105.52425481   227.48457205
 H      8   2   1     1.821518988903   109.75044680   112.66936043
 O      3   1   2     4.099525207232   146.80029400   179.24962045
 H     11   3   1     1.823598705809   106.78027491   320.60142116
 H     11   3   1     1.821132663909   109.80296006    76.20920704
 O      1   2   3     3.845463362579    74.05952275   232.66634649
 O      2   1   3     3.761558039482    75.05936591   127.85615408
 O      1   2   3     3.815013663352    73.95995993   138.40077275
 O      2   1   3     3.783263828850    75.04461815   224.12393186
 O      2   1   3     3.866782032806   117.40878227    47.61927412
 O      3   1   2     3.765340254638   117.26709156   308.16059317
 O      2   1   3     3.826052550390   113.63391854   305.58341222
 O      3   1   2     3.779515299866   113.40314056    53.51926815
 O      3   1   2     3.850854462219    74.26103026   229.08507860
 O      1   2   3     3.781900454413   118.25495853   310.62694758
 O      3   1   2     3.826505853789    74.06573020   135.78138820
 O      1   2   3     3.781916915739   112.93654170    55.09625704
 C     14   1   2     2.375662427145   132.75546277     3.79493958
 C     26  14   1     2.882653587637   118.94632844   170.39391982
 C     27  26  14     2.892292997523   108.63099668   126.19061591
 H     28  27  26     2.059968970530   111.26136268    57.58143434
 H     28  27  26     2.065360384544   111.36720485   296.55941308
 H     28  27  26     2.063884657809   109.42074906   177.50290820
 C     27  26  14     2.897777614042   107.01269863   244.39846565
 H     32  27  26     2.061137549111   111.01876271   301.33658735
 H     32  27  26     2.063958644399   109.36304078   181.71025510
 H     32  27  26     2.066100711659   111.41863527    62.57194630
 C     27  26  14     2.877004036122   111.32037851     4.63765849
 H     36  27  26     2.063166729471   111.46591808    61.41606620
 H     36  27  26     2.062282791216   111.57775380   300.31357335
 H     36  27  26     2.063775373464   109.49740989   180.63376741
 C     17   2   1     2.375093106339   133.03664391   356.42599224
 C     40  17   2     2.880781775569   118.28457332   180.36977698
 C     41  40  17     2.902209897524   105.87153958   265.21718544
 H     42  41  40     2.064184116832   111.21164807    61.31198046
 H     42  41  40     2.063513843470   111.19579311   299.97479764
 H     42  41  40     2.064060641913   109.35836339   180.52328167
 C     41  40  17     2.884940669023   110.29706802   146.66179376
 H     46  41  40     2.065333636064   111.42913027   299.03523350
 H     46  41  40     2.063358840208   109.48260048   180.03803857
 H     46  41  40     2.060787795996   111.48162601    60.67833512
 C     41  40  17     2.880911969512   110.71496303    24.37545683
 H     50  41  40     2.063864577748   111.44770723    60.97867767
 H     50  41  40     2.059529075646   111.46804725   300.22233152
 H     50  41  40     2.063697177020   109.49933114   180.41359417
 C     18   2   1     2.376609279343   133.74102469   322.63140649
 C     54  18   2     2.882480550703   119.00660600   176.80148006
 C     55  54  18     2.877410315492   111.35204851   356.08460308
 H     56  55  54     2.063530718564   109.48183071   181.77963641
 H     56  55  54     2.063576242168   111.54910515    62.72977449
 H     56  55  54     2.062390320864   111.59112656   301.34921499
 C     55  54  18     2.896831843535   107.44373422   116.64816456
 H     60  55  54     2.063752389839   109.44416578   179.26798848
 H     60  55  54     2.060763482187   111.28569083    59.42882764
 H     60  55  54     2.065724792442   111.35427382   298.36047494
 C     55  54  18     2.893781957953   108.17635412   235.08396822
 H     64  55  54     2.063712084919   109.45290132   182.49126722
 H     64  55  54     2.065447176136   111.30617576    63.39868295
 H     64  55  54     2.059956582091   111.19444986   302.38690518
 C     21   3   1     2.375039342244   134.49966755   317.19999909
 C     68  21   3     2.882914402605   118.46349648   172.34911745
 C     69  68  21     2.899261099360   106.83955228   248.87341645
 H     70  69  68     2.063993325983   109.41402982   181.46926893
 H     70  69  68     2.065288712091   111.28415432    62.42534029
 H     70  69  68     2.062149492899   111.19827185   301.22480912
 C     69  68  21     2.890319206837   109.04194409   130.41960240
 H     74  69  68     2.063490943560   109.40868698   178.83253167
 H     74  69  68     2.060701722778   111.40390880    59.30646191
 H     74  69  68     2.065242837072   111.39661081   297.90581059
 C     69  68  21     2.877615269546   111.09854042     8.85092042
 H     78  69  68     2.063982631650   109.41887897   180.17390970
 H     78  69  68     2.062405449458   111.54250927    60.49997682
 H     78  69  68     2.061042339208   111.51458053   299.87074497
 C     22   3   1     2.377095014612   132.56690779   353.03922063
 C     82  22   3     2.883182702548   117.77958178   186.99662598
 C     83  82  22     2.885184957186   110.15965166   322.46920973
 H     84  83  82     2.064763133661   111.43240481   298.03667320
 H     84  83  82     2.063564206863   109.53103050   178.70559147
 H     84  83  82     2.059630763006   111.50309508    58.87333641
 C     83  82  22     2.901702261648   106.01227281    81.17852290
 H     88  83  82     2.064549836980   111.32011106    60.54481795
 H     88  83  82     2.063669179827   111.32221407   299.14272771
 H     88  83  82     2.064029207762   109.43487464   179.79004546
 C     83  82  22     2.880711639867   110.95251178   200.10751797
 H     92  83  82     2.063693865851   109.48139411   179.81425740
 H     92  83  82     2.064150978719   111.44532468    60.47094903
 H     92  83  82     2.060201711449   111.47993645   299.43049802
 C     25   1   2     2.374247881360   133.03790131   303.38435533
 C     96  25   1     2.880720193213   118.04306289   182.97682880
 C     97  96  25     2.902780187901   105.83301940   265.03502800
 H     98  97  96     2.063953057235   109.29399866   180.74248689
 H     98  97  96     2.064498878947   111.17005447    61.58994804
 H     98  97  96     2.063671086979   111.20833159   300.19444750
 C     97  96  25     2.885562258478   110.35490505   146.43964568
 H    102  97  96     2.063468649590   109.42839045   180.58387548
 H    102  97  96     2.060616532286   111.55162791    61.17856247
 H    102  97  96     2.065458276948   111.47027718   299.63791675
 C     97  96  25     2.880343337099   110.81745616    24.01131819
 H    106  97  96     2.063745701352   109.42304741   181.66309917
 H    106  97  96     2.063997659946   111.48606704    62.29993536
 H    106  97  96     2.059262254304   111.52824818   301.59084980

---------------------
BASIS SET INFORMATION
---------------------
There are 4 groups of distinct atoms

 Group   1 Type Fe  : 17s11p7d1f contracted to 6s4p4d1f pattern {842111/6311/4111/1}
 Group   2 Type O   : 11s6p2d1f contracted to 5s3p2d1f pattern {62111/411/11/1}
 Group   3 Type H   : 5s1p contracted to 3s1p pattern {311/1}
 Group   4 Type C   : 11s6p2d1f contracted to 5s3p2d1f pattern {62111/411/11/1}

Atom   0Fe   basis set group =>   1
Atom   1Fe   basis set group =>   1
Atom   2Fe   basis set group =>   1
Atom   3O    basis set group =>   2
Atom   4O    basis set group =>   2
Atom   5H    basis set group =>   3
Atom   6H    basis set group =>   3
Atom   7O    basis set group =>   2
Atom   8H    basis set group =>   3
Atom   9H    basis set group =>   3
Atom  10O    basis set group =>   2
Atom  11H    basis set group =>   3
Atom  12H    basis set group =>   3
Atom  13O    basis set group =>   2
Atom  14O    basis set group =>   2
Atom  15O    basis set group =>   2
Atom  16O    basis set group =>   2
Atom  17O    basis set group =>   2
Atom  18O    basis set group =>   2
Atom  19O    basis set group =>   2
Atom  20O    basis set group =>   2
Atom  21O    basis set group =>   2
Atom  22O    basis set group =>   2
Atom  23O    basis set group =>   2
Atom  24O    basis set group =>   2
Atom  25C    basis set group =>   4
Atom  26C    basis set group =>   4
Atom  27C    basis set group =>   4
Atom  28H    basis set group =>   3
Atom  29H    basis set group =>   3
Atom  30H    basis set group =>   3
Atom  31C    basis set group =>   4
Atom  32H    basis set group =>   3
Atom  33H    basis set group =>   3
Atom  34H    basis set group =>   3
Atom  35C    basis set group =>   4
Atom  36H    basis set group =>   3
Atom  37H    basis set group =>   3
Atom  38H    basis set group =>   3
Atom  39C    basis set group =>   4
Atom  40C    basis set group =>   4
Atom  41C    basis set group =>   4
Atom  42H    basis set group =>   3
Atom  43H    basis set group =>   3
Atom  44H    basis set group =>   3
Atom  45C    basis set group =>   4
Atom  46H    basis set group =>   3
Atom  47H    basis set group =>   3
Atom  48H    basis set group =>   3
Atom  49C    basis set group =>   4
Atom  50H    basis set group =>   3
Atom  51H    basis set group =>   3
Atom  52H    basis set group =>   3
Atom  53C    basis set group =>   4
Atom  54C    basis set group =>   4
Atom  55C    basis set group =>   4
Atom  56H    basis set group =>   3
Atom  57H    basis set group =>   3
Atom  58H    basis set group =>   3
Atom  59C    basis set group =>   4
Atom  60H    basis set group =>   3
Atom  61H    basis set group =>   3
Atom  62H    basis set group =>   3
Atom  63C    basis set group =>   4
Atom  64H    basis set group =>   3
Atom  65H    basis set group =>   3
Atom  66H    basis set group =>   3
Atom  67C    basis set group =>   4
Atom  68C    basis set group =>   4
Atom  69C    basis set group =>   4
Atom  70H    basis set group =>   3
Atom  71H    basis set group =>   3
Atom  72H    basis set group =>   3
Atom  73C    basis set group =>   4
Atom  74H    basis set group =>   3
Atom  75H    basis set group =>   3
Atom  76H    basis set group =>   3
Atom  77C    basis set group =>   4
Atom  78H    basis set group =>   3
Atom  79H    basis set group =>   3
Atom  80H    basis set group =>   3
Atom  81C    basis set group =>   4
Atom  82C    basis set group =>   4
Atom  83C    basis set group =>   4
Atom  84H    basis set group =>   3
Atom  85H    basis set group =>   3
Atom  86H    basis set group =>   3
Atom  87C    basis set group =>   4
Atom  88H    basis set group =>   3
Atom  89H    basis set group =>   3
Atom  90H    basis set group =>   3
Atom  91C    basis set group =>   4
Atom  92H    basis set group =>   3
Atom  93H    basis set group =>   3
Atom  94H    basis set group =>   3
Atom  95C    basis set group =>   4
Atom  96C    basis set group =>   4
Atom  97C    basis set group =>   4
Atom  98H    basis set group =>   3
Atom  99H    basis set group =>   3
Atom 100H    basis set group =>   3
Atom 101C    basis set group =>   4
Atom 102H    basis set group =>   3
Atom 103H    basis set group =>   3
Atom 104H    basis set group =>   3
Atom 105C    basis set group =>   4
Atom 106H    basis set group =>   3
Atom 107H    basis set group =>   3
Atom 108H    basis set group =>   3
---------------------------------
AUXILIARY/J BASIS SET INFORMATION
---------------------------------
There are 4 groups of distinct atoms

 Group   1 Type Fe  : 19s5p5d3f3g contracted to 8s5p5d2f3g pattern {121111111/11111/11111/21/111}
 Group   2 Type O   : 12s5p4d2f1g contracted to 6s4p3d1f1g pattern {711111/2111/211/2/1}
 Group   3 Type H   : 5s2p1d contracted to 3s1p1d pattern {311/2/1}
 Group   4 Type C   : 12s5p4d2f1g contracted to 6s4p3d1f1g pattern {711111/2111/211/2/1}

Atom   0Fe   basis set group =>   1
Atom   1Fe   basis set group =>   1
Atom   2Fe   basis set group =>   1
Atom   3O    basis set group =>   2
Atom   4O    basis set group =>   2
Atom   5H    basis set group =>   3
Atom   6H    basis set group =>   3
Atom   7O    basis set group =>   2
Atom   8H    basis set group =>   3
Atom   9H    basis set group =>   3
Atom  10O    basis set group =>   2
Atom  11H    basis set group =>   3
Atom  12H    basis set group =>   3
Atom  13O    basis set group =>   2
Atom  14O    basis set group =>   2
Atom  15O    basis set group =>   2
Atom  16O    basis set group =>   2
Atom  17O    basis set group =>   2
Atom  18O    basis set group =>   2
Atom  19O    basis set group =>   2
Atom  20O    basis set group =>   2
Atom  21O    basis set group =>   2
Atom  22O    basis set group =>   2
Atom  23O    basis set group =>   2
Atom  24O    basis set group =>   2
Atom  25C    basis set group =>   4
Atom  26C    basis set group =>   4
Atom  27C    basis set group =>   4
Atom  28H    basis set group =>   3
Atom  29H    basis set group =>   3
Atom  30H    basis set group =>   3
Atom  31C    basis set group =>   4
Atom  32H    basis set group =>   3
Atom  33H    basis set group =>   3
Atom  34H    basis set group =>   3
Atom  35C    basis set group =>   4
Atom  36H    basis set group =>   3
Atom  37H    basis set group =>   3
Atom  38H    basis set group =>   3
Atom  39C    basis set group =>   4
Atom  40C    basis set group =>   4
Atom  41C    basis set group =>   4
Atom  42H    basis set group =>   3
Atom  43H    basis set group =>   3
Atom  44H    basis set group =>   3
Atom  45C    basis set group =>   4
Atom  46H    basis set group =>   3
Atom  47H    basis set group =>   3
Atom  48H    basis set group =>   3
Atom  49C    basis set group =>   4
Atom  50H    basis set group =>   3
Atom  51H    basis set group =>   3
Atom  52H    basis set group =>   3
Atom  53C    basis set group =>   4
Atom  54C    basis set group =>   4
Atom  55C    basis set group =>   4
Atom  56H    basis set group =>   3
Atom  57H    basis set group =>   3
Atom  58H    basis set group =>   3
Atom  59C    basis set group =>   4
Atom  60H    basis set group =>   3
Atom  61H    basis set group =>   3
Atom  62H    basis set group =>   3
Atom  63C    basis set group =>   4
Atom  64H    basis set group =>   3
Atom  65H    basis set group =>   3
Atom  66H    basis set group =>   3
Atom  67C    basis set group =>   4
Atom  68C    basis set group =>   4
Atom  69C    basis set group =>   4
Atom  70H    basis set group =>   3
Atom  71H    basis set group =>   3
Atom  72H    basis set group =>   3
Atom  73C    basis set group =>   4
Atom  74H    basis set group =>   3
Atom  75H    basis set group =>   3
Atom  76H    basis set group =>   3
Atom  77C    basis set group =>   4
Atom  78H    basis set group =>   3
Atom  79H    basis set group =>   3
Atom  80H    basis set group =>   3
Atom  81C    basis set group =>   4
Atom  82C    basis set group =>   4
Atom  83C    basis set group =>   4
Atom  84H    basis set group =>   3
Atom  85H    basis set group =>   3
Atom  86H    basis set group =>   3
Atom  87C    basis set group =>   4
Atom  88H    basis set group =>   3
Atom  89H    basis set group =>   3
Atom  90H    basis set group =>   3
Atom  91C    basis set group =>   4
Atom  92H    basis set group =>   3
Atom  93H    basis set group =>   3
Atom  94H    basis set group =>   3
Atom  95C    basis set group =>   4
Atom  96C    basis set group =>   4
Atom  97C    basis set group =>   4
Atom  98H    basis set group =>   3
Atom  99H    basis set group =>   3
Atom 100H    basis set group =>   3
Atom 101C    basis set group =>   4
Atom 102H    basis set group =>   3
Atom 103H    basis set group =>   3
Atom 104H    basis set group =>   3
Atom 105C    basis set group =>   4
Atom 106H    basis set group =>   3
Atom 107H    basis set group =>   3
Atom 108H    basis set group =>   3


           ************************************************************
           *        Program running with 32 parallel MPI-processes    *
           *              working on a common directory               *
           ************************************************************
------------------------------------------------------------------------------
                           ORCA GTO INTEGRAL CALCULATION
                           -- RI-GTO INTEGRALS CHOSEN --
------------------------------------------------------------------------------
------------------------------------------------------------------------------
                   ___                                                        
                  /   \      - P O W E R E D   B Y -                         
                 /     \                                                     
                 |  |  |   _    _      __       _____    __    __             
                 |  |  |  | |  | |    /  \     |  _  \  |  |  /  |          
                  \  \/   | |  | |   /    \    | | | |  |  | /  /          
                 / \  \   | |__| |  /  /\  \   | |_| |  |  |/  /          
                |  |  |   |  __  | /  /__\  \  |    /   |      \           
                |  |  |   | |  | | |   __   |  |    \   |  |\   \          
                \     /   | |  | | |  |  |  |  | |\  \  |  | \   \       
                 \___/    |_|  |_| |__|  |__|  |_| \__\ |__|  \__/        
                                                                              
                      - O R C A' S   B I G   F R I E N D -                    
                                      &                                       
                       - I N T E G R A L  F E E D E R -                       
                                                                              
 v1 FN, 2020, v2 2021                                                         
------------------------------------------------------------------------------


Reading SHARK input file Fe3_O_piv_6_H2O_3_HighSpin.SHARKINP.tmp ... ok
----------------------
SHARK INTEGRAL PACKAGE
----------------------

Number of atoms                             ...    109
Number of basis functions                   ...   1921
Number of shells                            ...    791
Maximum angular momentum                    ...      3
Integral batch strategy                     ... SHARK/LIBINT Hybrid
RI-J (if used) integral strategy            ... SPLIT-RIJ (Revised 2003 algorithm where possible)
Printlevel                                  ...      1
Contraction scheme used                     ... SEGMENTED contraction
Coulomb Range Separation                    ... NOT USED
Exchange Range Separation                   ... NOT USED
Finite Nucleus Model                        ... NOT USED
Auxiliary Coulomb fitting basis             ... AVAILABLE
   # of basis functions in Aux-J            ...   3181
   # of shells in Aux-J                     ...   1059
   Maximum angular momentum in Aux-J        ...      4
Auxiliary J/K fitting basis                 ... NOT available
Auxiliary Correlation fitting basis         ... NOT available
Auxiliary 'external' fitting basis          ... NOT available
Integral threshold                          ...     1.000000e-10
Primitive cut-off                           ...     1.000000e-11
Primitive pair pre-selection threshold      ...     1.000000e-11

Calculating pre-screening integrals         ... done (  0.1 sec) Dimension = 791
Organizing shell pair data                  ... done (  1.4 sec)
Shell pair information
Total number of shell pairs                 ...    313236
Shell pairs after pre-screening             ...    155793
Total number of primitive shell pairs       ...    965335
Primitive shell pairs kept                  ...    288662
          la=0 lb=0:  45335 shell pairs
          la=1 lb=0:  47114 shell pairs
          la=1 lb=1:  12314 shell pairs
          la=2 lb=0:  21576 shell pairs
          la=2 lb=1:  11348 shell pairs
          la=2 lb=2:   2623 shell pairs
          la=3 lb=0:   8586 shell pairs
          la=3 lb=1:   4585 shell pairs
          la=3 lb=2:   1988 shell pairs
          la=3 lb=3:    324 shell pairs

Calculating one electron integrals          ... done (  0.2 sec)
Calculating RI/J V-Matrix + Cholesky decomp.... done (  1.8 sec)
Calculating Nuclear repulsion               ... done (  0.0 sec) ENN=  11280.932228893633 Eh

SHARK setup successfully completed in   5.7 seconds

Maximum memory used throughout the entire GTOINT-calculation: 231.0 MB


           ************************************************************
           *        Program running with 32 parallel MPI-processes    *
           *              working on a common directory               *
           ************************************************************
-------------------------------------------------------------------------------
                                 ORCA SCF
-------------------------------------------------------------------------------

------------
SCF SETTINGS
------------
Hamiltonian:
 Density Functional     Method          .... DFT(GTOs)
 Exchange Functional    Exchange        .... PBE
   PBE kappa parameter   XKappa         ....  0.804000
   PBE mue parameter    XMuePBE         ....  0.219520
 Correlation Functional Correlation     .... PBE
   PBE beta parameter  CBetaPBE         ....  0.066725
 LDA part of GGA corr.  LDAOpt          .... PW91-LDA
 Gradients option       PostSCFGGA      .... off
   Density functional embedding theory  .... OFF
   NL short-range parameter             ....  6.400000
 RI-approximation to the Coulomb term is turned on
   Number of AuxJ basis functions       .... 3181


General Settings:
 Integral files         IntName         .... Fe3_O_piv_6_H2O_3_HighSpin
 Hartree-Fock type      HFTyp           .... UHF
 Total Charge           Charge          ....    1
 Multiplicity           Mult            ....   16
 Number of Electrons    NEL             ....  445
 Basis Dimension        Dim             .... 1921
 Nuclear Repulsion      ENuc            ....  11280.9322288936 Eh

Convergence Acceleration:
 DIIS                   CNVDIIS         .... on
   Start iteration      DIISMaxIt       ....    12
   Startup error        DIISStart       ....  0.200000
   # of expansion vecs  DIISMaxEq       ....     5
   Bias factor          DIISBfac        ....   1.050
   Max. coefficient     DIISMaxC        ....  10.000
 Trust-Rad. Augm. Hess. CNVTRAH         .... auto
   Auto Start mean grad. ratio tolernc. ....  1.125000
   Auto Start start iteration           ....    20
   Auto Start num. interpolation iter.  ....    10
   Max. Number of Micro iterations      ....    16
   Max. Number of Macro iterations      .... Maxiter - #DIIS iter
   Number of Davidson start vectors     ....     2
   Converg. threshold I  (grad. norm)   ....   5.000e-05
   Converg. threshold II (energy diff.) ....   1.000e-06
   Grad. Scal. Fac. for Micro threshold ....   0.100
   Minimum threshold for Micro iter.    ....   0.010
   NR start threshold (gradient norm)   ....   0.001
   Initial trust radius                 ....   0.400
   Minimum AH scaling param. (alpha)    ....   1.000
   Maximum AH scaling param. (alpha)    .... 1000.000
   Orbital update algorithm             .... Taylor
   White noise on init. David. guess    .... on
   Maximum white noise                  ....   0.010
   Quad. conv. algorithm                .... NR
 SOSCF                  CNVSOSCF        .... off
 Level Shifting         CNVShift        .... on
   Level shift para.    LevelShift      ....    0.2500
   Turn off err/grad.   ShiftErr        ....    0.0010
 Zerner damping         CNVZerner       .... off
 Static damping         CNVDamp         .... on
   Fraction old density DampFac         ....    0.7000
   Max. Damping (<1)    DampMax         ....    0.9800
   Min. Damping (>=0)   DampMin         ....    0.0000
   Turn off err/grad.   DampErr         ....    0.1000
 Fernandez-Rico         CNVRico         .... off

SCF Procedure:
 Maximum # iterations   MaxIter         ....   125
 SCF integral mode      SCFMode         .... Direct
   Integral package                     .... SHARK and LIBINT hybrid scheme
 Reset frequency        DirectResetFreq ....    20
 Integral Threshold     Thresh          ....  1.000e-10 Eh
 Primitive CutOff       TCut            ....  1.000e-11 Eh

Convergence Tolerance:
 Convergence Check Mode ConvCheckMode   .... Total+1el-Energy
 Convergence forced     ConvForced      .... 0
 Energy Change          TolE            ....  1.000e-06 Eh
 1-El. energy change                    ....  1.000e-03 Eh
 DIIS Error             TolErr          ....  1.000e-06


Diagonalization of the overlap matrix:
Smallest eigenvalue                        ... 5.394e-05
Time for diagonalization                   ...    2.442 sec
Threshold for overlap eigenvalues          ... 1.000e-08
Number of eigenvalues below threshold      ... 0
Time for construction of square roots      ...    0.592 sec
Total time needed                          ...    3.058 sec

Time for model grid setup =    1.151 sec

------------------------------
INITIAL GUESS: MODEL POTENTIAL
------------------------------
Loading Hartree-Fock densities                     ... done
Calculating cut-offs                               ... done
Initializing the effective Hamiltonian             ... done
Setting up the integral package (SHARK)            ... done
Starting the Coulomb interaction                   ... done (   1.4 sec)
Reading the grid                                   ... done
Mapping shells                                     ... done
Starting the XC term evaluation                    ... done (   0.3 sec)
  promolecular density results
     # of electrons  =    445.962018507
     EX              =   -464.380758682
     EC              =    -15.852844207
     EX+EC           =   -480.233602889
Transforming the Hamiltonian                       ... done (   0.3 sec)
Diagonalizing the Hamiltonian                      ... done (   0.5 sec)
Back transforming the eigenvectors                 ... done (   0.1 sec)
Now organizing SCF variables                       ... done
                      ------------------
                      INITIAL GUESS DONE (   4.0 sec)
                      ------------------
-------------------
DFT GRID GENERATION
-------------------

General Integration Accuracy     IntAcc      ... 4.388
Radial Grid Type                 RadialGrid  ... OptM3 with GC (2021)
Angular Grid (max. ang.)         AngularGrid ... 4 (Lebedev-302)
Angular grid pruning method      GridPruning ... 4 (adaptive)
Weight generation scheme         WeightScheme... Becke
Basis function cutoff            BFCut       ... 1.0000e-10
Integration weight cutoff        WCut        ... 1.0000e-14
Angular grids for H and He will be reduced by one unit
Partially contracted basis set               ... off
Rotationally invariant grid construction     ... off

Total number of grid points                  ...   493265
Total number of batches                      ...     7759
Average number of points per batch           ...       63
Average number of grid points per atom       ...     4525
Time for grid setup =    3.363 sec

--------------
SCF ITERATIONS
--------------
ITER       Energy         Delta-E        Max-DP      RMS-DP      [F,P]     Damp
               ***  Starting incremental Fock matrix formation  ***
  0  -6169.2860998407   0.000000000000 0.16656019  0.00041493  0.2219279 0.7000
  1  -6169.8201026639  -0.534002823194 0.85303275  0.00178093  0.1699481 0.7000
                               ***Turning on DIIS***
  2  -6170.0740054518  -0.253902787992 0.21213681  0.00047493  0.1173822 0.7000
  3  -6170.5651911508  -0.491185698910 0.59390147  0.00124428  0.0512425 0.0000
  4  -6171.0963675173  -0.531176366547 0.01399206  0.00004848  0.1251539 0.7000
  5  -6171.2627785385  -0.166411021166 0.01713007  0.00005959  0.1037058 0.7000
  6  -6171.4432880261  -0.180509487650 0.05295134  0.00019684  0.0767558 0.0000
  7  -6171.7986819875  -0.355393961430 0.01084873  0.00005843  0.0187619 0.0000
  8  -6171.8265019873  -0.027819999766 0.01619984  0.00004078  0.0118412 0.0000
  9  -6171.8325309649  -0.006028977572 0.01540140  0.00002538  0.0100254 0.0000
 10  -6171.8354130093  -0.002882044379 0.00864601  0.00001647  0.0063539 0.0000
 11  -6171.8364751113  -0.001062102080 0.00480456  0.00000988  0.0032937 0.0000
 12  -6171.8368507840  -0.000375672688 0.00105475  0.00000534  0.0023034 0.0000
 13  -6171.8370993662  -0.000248582134 0.00091905  0.00000412  0.0010414 0.0000
 14  -6171.8372201782  -0.000120812046 0.00172158  0.00001033  0.0007442 0.0000
 15  -6171.8372887606  -0.000068582372 0.00105744  0.00000172  0.0024988 0.0000
 16  -6171.8373399953  -0.000051234731 0.00054952  0.00000108  0.0010053 0.0000
 17  -6171.8373566235  -0.000016628146 0.00060396  0.00000194  0.0006340 0.0000
 18  -6171.8373489650   0.000007658447 0.00057678  0.00000159  0.0008158 0.0000
 19  -6171.8373620535  -0.000013088492 0.00026826  0.00000070  0.0003708 0.0000
               *** Restarting incremental Fock matrix formation ***
                                   *** Resetting DIIS ***
 20  -6171.8373611634   0.000000890106 0.00046233  0.00000139  0.0001526 0.0000
 21  -6171.8373495770   0.000011586404 0.00041112  0.00000101  0.0007870 0.0000
 22  -6171.8373599441  -0.000010367103 0.00006023  0.00000020  0.0001687 0.0000
 23  -6171.8373604137  -0.000000469552 0.00006188  0.00000020  0.0000417 0.0000
 24  -6171.8373609024  -0.000000488728 0.00003832  0.00000014  0.0000437 0.0000
 25  -6171.8373612307  -0.000000328288 0.00005071  0.00000019  0.0000199 0.0000
                 **** Energy Check signals convergence ****

               *****************************************************
               *                     SUCCESS                       *
               *           SCF CONVERGED AFTER  26 CYCLES          *
               *****************************************************


----------------
TOTAL SCF ENERGY
----------------

Total Energy       :        -6171.83736201 Eh         -167944.23274 eV

Components:
Nuclear Repulsion  :        11280.93222889 Eh          306969.77199 eV
Electronic Energy  :       -17452.76959090 Eh         -474914.00473 eV
One Electron Energy:       -30960.85014515 Eh         -842487.56369 eV
Two Electron Energy:        13508.08055425 Eh          367573.55896 eV

Virial components:
Potential Energy   :       -12329.76531759 Eh         -335509.97129 eV
Kinetic Energy     :         6157.92795559 Eh          167565.73855 eV
Virial Ratio       :            2.00225878


DFT components:
N(Alpha)           :      230.000339788971 electrons
N(Beta)            :      215.000331695909 electrons
N(Total)           :      445.000671484880 electrons
E(X)               :     -470.917396053187 Eh       
E(C)               :      -15.747751920105 Eh       
E(XC)              :     -486.665147973292 Eh       
DFET-embed. en.    :        0.000000000000 Eh       

---------------
SCF CONVERGENCE
---------------

  Last Energy change         ...   -7.7545e-07  Tolerance :   1.0000e-06
  Last MAX-Density change    ...    1.2770e-05  Tolerance :   1.0000e-05
  Last RMS-Density change    ...    7.3952e-08  Tolerance :   1.0000e-06
  Last DIIS Error            ...    7.0302e-06  Tolerance :   1.0000e-06

             **** THE GBW FILE WAS UPDATED (Fe3_O_piv_6_H2O_3_HighSpin.gbw) ****
             **** DENSITY Fe3_O_piv_6_H2O_3_HighSpin.scfp WAS UPDATED ****
             **** ENERGY FILE WAS UPDATED (Fe3_O_piv_6_H2O_3_HighSpin.en.tmp) ****
----------------------
UHF SPIN CONTAMINATION
----------------------

Warning: in a DFT calculation there is little theoretical justification to 
         calculate <S**2> as in Hartree-Fock theory. We will do it anyways
         but you should keep in mind that the values have only limited relevance

Expectation value of <S**2>     :    63.762334
Ideal value S*(S+1) for S=7.5   :    63.750000
Deviation                       :     0.012334

             **** THE GBW FILE WAS UPDATED (Fe3_O_piv_6_H2O_3_HighSpin.gbw) ****
             **** DENSITY Fe3_O_piv_6_H2O_3_HighSpin.scfp WAS UPDATED ****
----------------
ORBITAL ENERGIES
----------------
                 SPIN UP ORBITALS
  NO   OCC          E(Eh)            E(eV) 
   0   1.0000    -254.887838     -6935.8507 
   1   1.0000    -254.887559     -6935.8431 
   2   1.0000    -254.887503     -6935.8416 
   3   1.0000     -29.749311      -809.5199 
   4   1.0000     -29.749010      -809.5117 
   5   1.0000     -29.748947      -809.5100 
   6   1.0000     -25.681703      -698.8347 
   7   1.0000     -25.681438      -698.8275 
   8   1.0000     -25.681369      -698.8256 
   9   1.0000     -25.681214      -698.8214 
  10   1.0000     -25.681019      -698.8161 
  11   1.0000     -25.681013      -698.8159 
  12   1.0000     -25.680876      -698.8122 
  13   1.0000     -25.680647      -698.8059 
  14   1.0000     -25.680537      -698.8029 
  15   1.0000     -18.895343      -514.1684 
  16   1.0000     -18.895129      -514.1626 
  17   1.0000     -18.894257      -514.1389 
  18   1.0000     -18.853397      -513.0270 
  19   1.0000     -18.852984      -513.0158 
  20   1.0000     -18.852940      -513.0146 
  21   1.0000     -18.852898      -513.0134 
  22   1.0000     -18.852758      -513.0096 
  23   1.0000     -18.852560      -513.0042 
  24   1.0000     -18.852420      -513.0004 
  25   1.0000     -18.851629      -512.9789 
  26   1.0000     -18.851608      -512.9783 
  27   1.0000     -18.850746      -512.9549 
  28   1.0000     -18.850574      -512.9502 
  29   1.0000     -18.850343      -512.9439 
  30   1.0000     -18.846574      -512.8413 
  31   1.0000     -10.096509      -274.7400 
  32   1.0000     -10.095806      -274.7209 
  33   1.0000     -10.095740      -274.7191 
  34   1.0000     -10.095401      -274.7098 
  35   1.0000     -10.094750      -274.6921 
  36   1.0000     -10.094221      -274.6777 
  37   1.0000      -9.993171      -271.9280 
  38   1.0000      -9.992511      -271.9100 
  39   1.0000      -9.992428      -271.9078 
  40   1.0000      -9.991915      -271.8938 
  41   1.0000      -9.991284      -271.8767 
  42   1.0000      -9.991222      -271.8750 
  43   1.0000      -9.960399      -271.0362 
  44   1.0000      -9.958529      -270.9853 
  45   1.0000      -9.958070      -270.9729 
  46   1.0000      -9.956700      -270.9356 
  47   1.0000      -9.956373      -270.9267 
  48   1.0000      -9.955423      -270.9008 
  49   1.0000      -9.955280      -270.8969 
  50   1.0000      -9.954724      -270.8818 
  51   1.0000      -9.954535      -270.8767 
  52   1.0000      -9.954340      -270.8714 
  53   1.0000      -9.953548      -270.8498 
  54   1.0000      -9.952648      -270.8253 
  55   1.0000      -9.951675      -270.7988 
  56   1.0000      -9.951604      -270.7969 
  57   1.0000      -9.950726      -270.7730 
  58   1.0000      -9.948818      -270.7211 
  59   1.0000      -9.947277      -270.6792 
  60   1.0000      -9.946751      -270.6649 
  61   1.0000      -3.538530       -96.2883 
  62   1.0000      -3.538216       -96.2797 
  63   1.0000      -3.538135       -96.2775 
  64   1.0000      -2.350627       -63.9638 
  65   1.0000      -2.350586       -63.9627 
  66   1.0000      -2.350364       -63.9567 
  67   1.0000      -2.350250       -63.9536 
  68   1.0000      -2.350176       -63.9515 
  69   1.0000      -2.350089       -63.9492 
  70   1.0000      -2.349345       -63.9289 
  71   1.0000      -2.349014       -63.9199 
  72   1.0000      -2.348761       -63.9130 
  73   1.0000      -1.101650       -29.9774 
  74   1.0000      -1.098581       -29.8939 
  75   1.0000      -1.098303       -29.8863 
  76   1.0000      -1.095616       -29.8132 
  77   1.0000      -1.094813       -29.7914 
  78   1.0000      -1.094762       -29.7900 
  79   1.0000      -1.071315       -29.1520 
  80   1.0000      -1.071086       -29.1457 
  81   1.0000      -1.070306       -29.1245 
  82   1.0000      -1.014336       -27.6015 
  83   1.0000      -1.014177       -27.5972 
  84   1.0000      -1.010707       -27.5027 
  85   1.0000      -1.010017       -27.4840 
  86   1.0000      -1.009651       -27.4740 
  87   1.0000      -1.008740       -27.4492 
  88   1.0000      -0.958589       -26.0845 
  89   1.0000      -0.836669       -22.7669 
  90   1.0000      -0.835946       -22.7473 
  91   1.0000      -0.835753       -22.7420 
  92   1.0000      -0.835217       -22.7274 
  93   1.0000      -0.834590       -22.7104 
  94   1.0000      -0.834511       -22.7082 
  95   1.0000      -0.709439       -19.3048 
  96   1.0000      -0.708521       -19.2798 
  97   1.0000      -0.708179       -19.2705 
  98   1.0000      -0.707562       -19.2537 
  99   1.0000      -0.707097       -19.2411 
 100   1.0000      -0.706397       -19.2220 
 101   1.0000      -0.705166       -19.1885 
 102   1.0000      -0.704566       -19.1722 
 103   1.0000      -0.703410       -19.1408 
 104   1.0000      -0.703182       -19.1345 
 105   1.0000      -0.702308       -19.1108 
 106   1.0000      -0.701882       -19.0992 
 107   1.0000      -0.668027       -18.1779 
 108   1.0000      -0.659268       -17.9396 
 109   1.0000      -0.658855       -17.9283 
 110   1.0000      -0.657212       -17.8837 
 111   1.0000      -0.656661       -17.8687 
 112   1.0000      -0.656283       -17.8584 
 113   1.0000      -0.625774       -17.0282 
 114   1.0000      -0.625287       -17.0149 
 115   1.0000      -0.624261       -16.9870 
 116   1.0000      -0.584944       -15.9171 
 117   1.0000      -0.584395       -15.9022 
 118   1.0000      -0.584071       -15.8934 
 119   1.0000      -0.571919       -15.5627 
 120   1.0000      -0.571532       -15.5522 
 121   1.0000      -0.570533       -15.5250 
 122   1.0000      -0.565620       -15.3913 
 123   1.0000      -0.563265       -15.3272 
 124   1.0000      -0.563110       -15.3230 
 125   1.0000      -0.553226       -15.0540 
 126   1.0000      -0.552606       -15.0372 
 127   1.0000      -0.547208       -14.8903 
 128   1.0000      -0.531901       -14.4738 
 129   1.0000      -0.531744       -14.4695 
 130   1.0000      -0.529561       -14.4101 
 131   1.0000      -0.526498       -14.3267 
 132   1.0000      -0.525025       -14.2867 
 133   1.0000      -0.524234       -14.2651 
 134   1.0000      -0.523889       -14.2557 
 135   1.0000      -0.522607       -14.2209 
 136   1.0000      -0.522081       -14.2065 
 137   1.0000      -0.514271       -13.9940 
 138   1.0000      -0.514035       -13.9876 
 139   1.0000      -0.511010       -13.9053 
 140   1.0000      -0.506048       -13.7703 
 141   1.0000      -0.502747       -13.6804 
 142   1.0000      -0.502407       -13.6712 
 143   1.0000      -0.485182       -13.2025 
 144   1.0000      -0.484642       -13.1878 
 145   1.0000      -0.477223       -12.9859 
 146   1.0000      -0.476342       -12.9619 
 147   1.0000      -0.476295       -12.9607 
 148   1.0000      -0.475949       -12.9512 
 149   1.0000      -0.475423       -12.9369 
 150   1.0000      -0.474698       -12.9172 
 151   1.0000      -0.474213       -12.9040 
 152   1.0000      -0.472273       -12.8512 
 153   1.0000      -0.469938       -12.7877 
 154   1.0000      -0.469444       -12.7742 
 155   1.0000      -0.464912       -12.6509 
 156   1.0000      -0.464036       -12.6271 
 157   1.0000      -0.459400       -12.5009 
 158   1.0000      -0.454446       -12.3661 
 159   1.0000      -0.452836       -12.3223 
 160   1.0000      -0.451419       -12.2837 
 161   1.0000      -0.446241       -12.1428 
 162   1.0000      -0.444383       -12.0923 
 163   1.0000      -0.444190       -12.0870 
 164   1.0000      -0.442649       -12.0451 
 165   1.0000      -0.441461       -12.0128 
 166   1.0000      -0.436904       -11.8888 
 167   1.0000      -0.435733       -11.8569 
 168   1.0000      -0.432454       -11.7677 
 169   1.0000      -0.430657       -11.7188 
 170   1.0000      -0.430120       -11.7042 
 171   1.0000      -0.427522       -11.6335 
 172   1.0000      -0.426124       -11.5954 
 173   1.0000      -0.425048       -11.5662 
 174   1.0000      -0.424786       -11.5590 
 175   1.0000      -0.423309       -11.5188 
 176   1.0000      -0.422778       -11.5044 
 177   1.0000      -0.421489       -11.4693 
 178   1.0000      -0.420524       -11.4430 
 179   1.0000      -0.419861       -11.4250 
 180   1.0000      -0.418689       -11.3931 
 181   1.0000      -0.417800       -11.3689 
 182   1.0000      -0.417174       -11.3519 
 183   1.0000      -0.415544       -11.3075 
 184   1.0000      -0.413152       -11.2424 
 185   1.0000      -0.407305       -11.0833 
 186   1.0000      -0.406620       -11.0647 
 187   1.0000      -0.406494       -11.0613 
 188   1.0000      -0.405496       -11.0341 
 189   1.0000      -0.405286       -11.0284 
 190   1.0000      -0.404906       -11.0180 
 191   1.0000      -0.403899       -10.9906 
 192   1.0000      -0.403690       -10.9850 
 193   1.0000      -0.402513       -10.9529 
 194   1.0000      -0.402058       -10.9405 
 195   1.0000      -0.395469       -10.7612 
 196   1.0000      -0.391590       -10.6557 
 197   1.0000      -0.383620       -10.4388 
 198   1.0000      -0.383035       -10.4229 
 199   1.0000      -0.381508       -10.3814 
 200   1.0000      -0.380288       -10.3482 
 201   1.0000      -0.380093       -10.3429 
 202   1.0000      -0.379474       -10.3260 
 203   1.0000      -0.379039       -10.3142 
 204   1.0000      -0.378251       -10.2927 
 205   1.0000      -0.377777       -10.2798 
 206   1.0000      -0.377613       -10.2754 
 207   1.0000      -0.377400       -10.2696 
 208   1.0000      -0.376214       -10.2373 
 209   1.0000      -0.375297       -10.2124 
 210   1.0000      -0.373997       -10.1770 
 211   1.0000      -0.368588       -10.0298 
 212   1.0000      -0.366257        -9.9664 
 213   1.0000      -0.365973        -9.9586 
 214   1.0000      -0.361762        -9.8440 
 215   1.0000      -0.360682        -9.8147 
 216   1.0000      -0.359370        -9.7789 
[...]
      f+1     :     0.000003
      f-1     :     0.000010
      f+2     :     0.000030
      f-2     :     0.000033
      f+3     :     0.000027
      f-3     :     0.000008
 92 H s       :     0.000722  s :     0.000722
      pz      :    -0.000005  p :     0.000027
      px      :     0.000021
      py      :     0.000011
 93 H s       :     0.000101  s :     0.000101
      pz      :     0.000006  p :     0.000022
      px      :     0.000012
      py      :     0.000004
 94 H s       :     0.000195  s :     0.000195
      pz      :     0.000007  p :     0.000063
      px      :     0.000016
      py      :     0.000041
 95 C s       :    -0.000050  s :    -0.000050
      pz      :     0.001117  p :     0.006344
      px      :     0.002040
      py      :     0.003187
      dz2     :     0.001147  d :     0.023447
      dxz     :     0.004093
      dyz     :     0.005171
      dx2y2   :     0.005475
      dxy     :     0.007561
      f0      :     0.000164  f :     0.004971
      f+1     :     0.000519
      f-1     :     0.000283
      f+2     :     0.001419
      f-2     :     0.000180
      f+3     :     0.001319
      f-3     :     0.001086
 96 C s       :     0.001272  s :     0.001272
      pz      :     0.002673  p :     0.012523
      px      :     0.005182
      py      :     0.004668
      dz2     :     0.000056  d :     0.001147
      dxz     :     0.000351
      dyz     :     0.000214
      dx2y2   :     0.000445
      dxy     :     0.000081
      f0      :     0.000001  f :     0.000233
      f+1     :     0.000021
      f-1     :     0.000018
      f+2     :     0.000073
      f-2     :    -0.000000
      f+3     :     0.000067
      f-3     :     0.000054
 97 C s       :     0.000047  s :     0.000047
      pz      :    -0.000041  p :     0.000955
      px      :     0.000614
      py      :     0.000381
      dz2     :     0.000341  d :     0.000915
      dxz     :     0.000049
      dyz     :     0.000034
      dx2y2   :     0.000049
      dxy     :     0.000442
      f0      :     0.000043  f :     0.000112
      f+1     :     0.000034
      f-1     :     0.000005
      f+2     :     0.000004
      f-2     :     0.000013
      f+3     :     0.000002
      f-3     :     0.000012
 98 H s       :     0.000694  s :     0.000694
      pz      :     0.000015  p :     0.000020
      px      :     0.000004
      py      :     0.000001
 99 H s       :     0.000073  s :     0.000073
      pz      :     0.000003  p :     0.000018
      px      :     0.000010
      py      :     0.000005
100 H s       :     0.000088  s :     0.000088
      pz      :     0.000002  p :     0.000027
      px      :     0.000010
      py      :     0.000015
101 C s       :     0.000206  s :     0.000206
      pz      :     0.000720  p :     0.001500
      px      :     0.000568
      py      :     0.000212
      dz2     :     0.000034  d :     0.001101
      dxz     :     0.000476
      dyz     :     0.000162
      dx2y2   :     0.000347
      dxy     :     0.000082
      f0      :     0.000008  f :     0.000131
      f+1     :     0.000012
      f-1     :     0.000006
      f+2     :     0.000062
      f-2     :     0.000006
      f+3     :     0.000022
      f-3     :     0.000016
102 H s       :     0.000802  s :     0.000802
      pz      :     0.000008  p :     0.000029
      px      :     0.000007
      py      :     0.000014
103 H s       :     0.000152  s :     0.000152
      pz      :     0.000030  p :     0.000070
      px      :     0.000011
      py      :     0.000029
104 H s       :     0.000128  s :     0.000128
      pz      :     0.000013  p :     0.000020
      px      :     0.000006
      py      :     0.000001
105 C s       :     0.000195  s :     0.000195
      pz      :     0.000541  p :     0.001519
      px      :     0.000177
      py      :     0.000800
      dz2     :     0.000020  d :     0.001047
      dxz     :     0.000124
      dyz     :     0.000273
      dx2y2   :     0.000514
      dxy     :     0.000116
      f0      :     0.000005  f :     0.000132
      f+1     :     0.000011
      f-1     :     0.000003
      f+2     :     0.000029
      f-2     :     0.000008
      f+3     :     0.000008
      f-3     :     0.000068
106 H s       :     0.000702  s :     0.000702
      pz      :     0.000003  p :     0.000030
      px      :     0.000012
      py      :     0.000014
107 H s       :     0.000093  s :     0.000093
      pz      :     0.000011  p :     0.000022
      px      :     0.000001
      py      :     0.000010
108 H s       :     0.000212  s :     0.000212
      pz      :     0.000042  p :     0.000076
      px      :     0.000019
      py      :     0.000014


                      *****************************
                      * MAYER POPULATION ANALYSIS *
                      *****************************

  NA   - Mulliken gross atomic population
  ZA   - Total nuclear charge
  QA   - Mulliken gross atomic charge
  VA   - Mayer's total valence
  BVA  - Mayer's bonded valence
  FA   - Mayer's free valence

  ATOM       NA         ZA         QA         VA         BVA        FA
  0 Fe    25.3308    26.0000     0.6692     7.0406     3.5818     3.4588
  1 Fe    25.3238    26.0000     0.6762     7.0220     3.5641     3.4579
  2 Fe    25.3237    26.0000     0.6763     7.0265     3.5685     3.4580
  3 O      8.7144     8.0000    -0.7144     1.7560     1.6022     0.1538
  4 O      8.4748     8.0000    -0.4748     2.0867     2.0842     0.0025
  5 H      0.6500     1.0000     0.3500     0.8997     0.8997     0.0000
  6 H      0.6406     1.0000     0.3594     0.8900     0.8900     0.0000
  7 O      8.4774     8.0000    -0.4774     2.0769     2.0743     0.0026
  8 H      0.6460     1.0000     0.3540     0.8998     0.8998     0.0000
  9 H      0.6426     1.0000     0.3574     0.8934     0.8934     0.0000
 10 O      8.4775     8.0000    -0.4775     2.0791     2.0766     0.0025
 11 H      0.6500     1.0000     0.3500     0.9010     0.9010     0.0000
 12 H      0.6428     1.0000     0.3572     0.8941     0.8941     0.0000
 13 O      8.3207     8.0000    -0.3207     2.0696     2.0607     0.0088
 14 O      8.3412     8.0000    -0.3412     2.1253     2.1152     0.0100
 15 O      8.3732     8.0000    -0.3732     2.0934     2.0853     0.0081
 16 O      8.3331     8.0000    -0.3331     2.1137     2.1044     0.0093
 17 O      8.3668     8.0000    -0.3668     2.0606     2.0531     0.0075
 18 O      8.3458     8.0000    -0.3458     2.1178     2.1088     0.0091
 19 O      8.3565     8.0000    -0.3565     2.0822     2.0735     0.0086
 20 O      8.3276     8.0000    -0.3276     2.1218     2.1116     0.0102
 21 O      8.3406     8.0000    -0.3406     2.0790     2.0708     0.0082
 22 O      8.3447     8.0000    -0.3447     2.1096     2.1007     0.0089
 23 O      8.3845     8.0000    -0.3845     2.0807     2.0726     0.0081
 24 O      8.3302     8.0000    -0.3302     2.1297     2.1196     0.0102
 25 C      5.5704     6.0000     0.4296     4.0227     4.0226     0.0001
 26 C      5.9049     6.0000     0.0951     3.9404     3.9401     0.0003
 27 C      6.3664     6.0000    -0.3664     3.8826     3.8826     0.0000
 28 H      0.8642     1.0000     0.1358     0.9846     0.9846     0.0000
 29 H      0.8857     1.0000     0.1143     0.9780     0.9780     0.0000
 30 H      0.8701     1.0000     0.1299     0.9767     0.9767     0.0000
 31 C      6.3905     6.0000    -0.3905     3.8941     3.8941     0.0000
 32 H      0.8679     1.0000     0.1321     0.9891     0.9891     0.0000
 33 H      0.8667     1.0000     0.1333     0.9772     0.9772     0.0000
 34 H      0.8854     1.0000     0.1146     0.9792     0.9792     0.0000
 35 C      6.3460     6.0000    -0.3460     3.8885     3.8885     0.0000
 36 H      0.8959     1.0000     0.1041     0.9854     0.9854     0.0000
 37 H      0.8803     1.0000     0.1197     0.9857     0.9857     0.0000
 38 H      0.8698     1.0000     0.1302     0.9785     0.9785     0.0000
 39 C      5.5811     6.0000     0.4189     4.0647     4.0646     0.0001
 40 C      5.9095     6.0000     0.0905     3.9447     3.9444     0.0003
 41 C      6.3992     6.0000    -0.3992     3.9006     3.9006     0.0000
 42 H      0.8681     1.0000     0.1319     0.9793     0.9793     0.0000
 43 H      0.8694     1.0000     0.1306     0.9799     0.9799     0.0000
 44 H      0.8665     1.0000     0.1335     0.9765     0.9765     0.0000
 45 C      6.3691     6.0000    -0.3691     3.8791     3.8791     0.0000
 46 H      0.8811     1.0000     0.1189     0.9770     0.9770     0.0000
 47 H      0.8658     1.0000     0.1342     0.9800     0.9800     0.0000
 48 H      0.8871     1.0000     0.1129     0.9834     0.9834     0.0000
 49 C      6.3415     6.0000    -0.3415     3.8847     3.8847     0.0000
 50 H      0.8797     1.0000     0.1203     0.9800     0.9800     0.0000
 51 H      0.8857     1.0000     0.1143     0.9880     0.9880     0.0000
 52 H      0.8706     1.0000     0.1294     0.9759     0.9759     0.0000
 53 C      5.5914     6.0000     0.4086     4.0906     4.0906     0.0001
 54 C      5.9153     6.0000     0.0847     3.9642     3.9640     0.0003
 55 C      6.3504     6.0000    -0.3504     3.8878     3.8878     0.0000
 56 H      0.8690     1.0000     0.1310     0.9794     0.9794     0.0000
 57 H      0.9022     1.0000     0.0978     0.9856     0.9856     0.0000
 58 H      0.8737     1.0000     0.1263     0.9825     0.9825     0.0000
 59 C      6.3697     6.0000    -0.3697     3.8885     3.8885     0.0000
 60 H      0.8680     1.0000     0.1320     0.9765     0.9765     0.0000
 61 H      0.8700     1.0000     0.1300     0.9844     0.9844     0.0000
 62 H      0.8837     1.0000     0.1163     0.9787     0.9787     0.0000
 63 C      6.3722     6.0000    -0.3722     3.8851     3.8851     0.0000
 64 H      0.8679     1.0000     0.1321     0.9767     0.9767     0.0000
 65 H      0.8817     1.0000     0.1183     0.9797     0.9797     0.0000
 66 H      0.8752     1.0000     0.1248     0.9863     0.9863     0.0000
 67 C      5.5647     6.0000     0.4353     4.0025     4.0024     0.0001
 68 C      5.9113     6.0000     0.0887     3.9621     3.9618     0.0003
 69 C      6.3919     6.0000    -0.3919     3.8906     3.8906     0.0000
 70 H      0.8664     1.0000     0.1336     0.9766     0.9766     0.0000
 71 H      0.8725     1.0000     0.1275     0.9801     0.9801     0.0000
 72 H      0.8754     1.0000     0.1246     0.9852     0.9852     0.0000
 73 C      6.3628     6.0000    -0.3628     3.8808     3.8808     0.0000
 74 H      0.8669     1.0000     0.1331     0.9797     0.9797     0.0000
 75 H      0.8959     1.0000     0.1041     0.9899     0.9899     0.0000
 76 H      0.8784     1.0000     0.1216     0.9778     0.9778     0.0000
 77 C      6.3355     6.0000    -0.3355     3.8991     3.8991     0.0000
 78 H      0.8733     1.0000     0.1267     0.9757     0.9757     0.0000
 79 H      0.8810     1.0000     0.1190     0.9825     0.9825     0.0000
 80 H      0.8844     1.0000     0.1156     0.9892     0.9892     0.0000
 81 C      5.5878     6.0000     0.4122     4.0648     4.0647     0.0001
 82 C      5.9216     6.0000     0.0784     3.9662     3.9659     0.0003
 83 C      6.3393     6.0000    -0.3393     3.8779     3.8779     0.0000
 84 H      0.8833     1.0000     0.1167     0.9810     0.9810     0.0000
 85 H      0.8680     1.0000     0.1320     0.9767     0.9767     0.0000
 86 H      0.8949     1.0000     0.1051     0.9909     0.9909     0.0000
 87 C      6.3783     6.0000    -0.3783     3.8916     3.8916     0.0000
 88 H      0.8700     1.0000     0.1300     0.9780     0.9780     0.0000
 89 H      0.8913     1.0000     0.1087     0.9839     0.9839     0.0000
 90 H      0.8637     1.0000     0.1363     0.9773     0.9773     0.0000
 91 C      6.3472     6.0000    -0.3472     3.8846     3.8846     0.0000
 92 H      0.8703     1.0000     0.1297     0.9777     0.9777     0.0000
 93 H      0.8844     1.0000     0.1156     0.9847     0.9847     0.0000
 94 H      0.8837     1.0000     0.1163     0.9859     0.9859     0.0000
 95 C      5.5720     6.0000     0.4280     4.0300     4.0299     0.0001
 96 C      5.9107     6.0000     0.0893     3.9493     3.9490     0.0003
 97 C      6.4042     6.0000    -0.4042     3.9039     3.9039     0.0000
 98 H      0.8647     1.0000     0.1353     0.9763     0.9763     0.0000
 99 H      0.8713     1.0000     0.1287     0.9782     0.9782     0.0000
100 H      0.8698     1.0000     0.1302     0.9821     0.9821     0.0000
101 C      6.3634     6.0000    -0.3634     3.8827     3.8827     0.0000
102 H      0.8666     1.0000     0.1334     0.9799     0.9799     0.0000
103 H      0.8920     1.0000     0.1080     0.9847     0.9847     0.0000
104 H      0.8786     1.0000     0.1214     0.9768     0.9768     0.0000
105 C      6.3423     6.0000    -0.3423     3.8862     3.8861     0.0000
106 H      0.8725     1.0000     0.1275     0.9753     0.9753     0.0000
107 H      0.8832     1.0000     0.1168     0.9806     0.9806     0.0000
108 H      0.8755     1.0000     0.1245     0.9860     0.9860     0.0000

  Mayer bond orders larger than 0.100000
B(  0-Fe,  3-O ) :   0.5948 B(  0-Fe,  4-O ) :   0.4197 B(  0-Fe, 13-O ) :   0.5049 
B(  0-Fe, 15-O ) :   0.5197 B(  0-Fe, 22-O ) :   0.5391 B(  0-Fe, 24-O ) :   0.5643 
B(  1-Fe,  3-O ) :   0.6007 B(  1-Fe,  7-O ) :   0.4131 B(  1-Fe, 14-O ) :   0.5747 
B(  1-Fe, 16-O ) :   0.5463 B(  1-Fe, 17-O ) :   0.4608 B(  1-Fe, 19-O ) :   0.5216 
B(  2-Fe,  3-O ) :   0.5952 B(  2-Fe, 10-O ) :   0.4079 B(  2-Fe, 18-O ) :   0.5650 
B(  2-Fe, 20-O ) :   0.5570 B(  2-Fe, 21-O ) :   0.5045 B(  2-Fe, 23-O ) :   0.4917 
B(  4-O ,  5-H ) :   0.8697 B(  4-O ,  6-H ) :   0.8675 B(  7-O ,  8-H ) :   0.8644 
B(  7-O ,  9-H ) :   0.8676 B( 10-O , 11-H ) :   0.8688 B( 10-O , 12-H ) :   0.8685 
B( 13-O , 25-C ) :   1.4901 B( 14-O , 25-C ) :   1.4470 B( 15-O , 39-C ) :   1.4596 
B( 16-O , 39-C ) :   1.4728 B( 17-O , 53-C ) :   1.5020 B( 18-O , 53-C ) :   1.4599 
B( 19-O , 67-C ) :   1.4579 B( 20-O , 67-C ) :   1.4665 B( 21-O , 81-C ) :   1.4840 
B( 22-O , 81-C ) :   1.4734 B( 23-O , 95-C ) :   1.4673 B( 24-O , 95-C ) :   1.4583 
B( 25-C , 26-C ) :   0.9808 B( 26-C , 27-C ) :   0.9677 B( 26-C , 31-C ) :   0.9382 
B( 26-C , 35-C ) :   0.9884 B( 27-C , 28-H ) :   0.9615 B( 27-C , 29-H ) :   0.9645 
B( 27-C , 30-H ) :   0.9596 B( 31-C , 32-H ) :   0.9660 B( 31-C , 33-H ) :   0.9586 
B( 31-C , 34-H ) :   0.9644 B( 35-C , 36-H ) :   0.9623 B( 35-C , 37-H ) :   0.9622 
B( 35-C , 38-H ) :   0.9621 B( 39-C , 40-C ) :   0.9849 B( 40-C , 41-C ) :   0.9253 
B( 40-C , 45-C ) :   0.9636 B( 40-C , 49-C ) :   0.9946 B( 41-C , 42-H ) :   0.9672 
B( 41-C , 43-H ) :   0.9633 B( 41-C , 44-H ) :   0.9580 B( 45-C , 46-H ) :   0.9683 
B( 45-C , 47-H ) :   0.9616 B( 45-C , 48-H ) :   0.9624 B( 49-C , 50-H ) :   0.9633 
B( 49-C , 51-H ) :   0.9593 B( 49-C , 52-H ) :   0.9615 B( 53-C , 54-C ) :   0.9827 
B( 54-C , 55-C ) :   0.9850 B( 54-C , 59-C ) :   0.9558 B( 54-C , 63-C ) :   0.9556 
B( 55-C , 56-H ) :   0.9613 B( 55-C , 57-H ) :   0.9608 B( 55-C , 58-H ) :   0.9639 
B( 59-C , 60-H ) :   0.9590 B( 59-C , 61-H ) :   0.9627 B( 59-C , 62-H ) :   0.9646 
B( 63-C , 64-H ) :   0.9599 B( 63-C , 65-H ) :   0.9667 B( 63-C , 66-H ) :   0.9620 
B( 67-C , 68-C ) :   0.9784 B( 68-C , 69-C ) :   0.9388 B( 68-C , 73-C ) :   0.9570 
B( 68-C , 77-C ) :   1.0106 B( 69-C , 70-H ) :   0.9585 B( 69-C , 71-H ) :   0.9674 
B( 69-C , 72-H ) :   0.9609 B( 73-C , 74-H ) :   0.9615 B( 73-C , 75-H ) :   0.9660 
B( 73-C , 76-H ) :   0.9670 B( 77-C , 78-H ) :   0.9618 B( 77-C , 79-H ) :   0.9573 
B( 77-C , 80-H ) :   0.9596 B( 81-C , 82-C ) :   0.9757 B( 82-C , 83-C ) :   0.9848 
B( 82-C , 87-C ) :   0.9312 B( 82-C , 91-C ) :   0.9874 B( 83-C , 84-H ) :   0.9658 
B( 83-C , 85-H ) :   0.9624 B( 83-C , 86-H ) :   0.9599 B( 87-C , 88-H ) :   0.9660 
B( 87-C , 89-H ) :   0.9644 B( 87-C , 90-H ) :   0.9590 B( 91-C , 92-H ) :   0.9616 
B( 91-C , 93-H ) :   0.9647 B( 91-C , 94-H ) :   0.9587 B( 95-C , 96-C ) :   0.9814 
B( 96-C , 97-C ) :   0.9199 B( 96-C ,101-C ) :   0.9703 B( 96-C ,105-C ) :   0.9982 
B( 97-C , 98-H ) :   0.9574 B( 97-C , 99-H ) :   0.9661 B( 97-C ,100-H ) :   0.9661 
B(101-C ,102-H ) :   0.9620 B(101-C ,103-H ) :   0.9625 B(101-C ,104-H ) :   0.9676 
B(105-C ,106-H ) :   0.9612 B(105-C ,107-H ) :   0.9632 B(105-C ,108-H ) :   0.9579 


-------
TIMINGS
-------

Total SCF time: 0 days 0 hours 3 min 56 sec 

Total time                  ....     236.287 sec
Sum of individual times     ....     215.843 sec  ( 91.3%)

Fock matrix formation       ....     113.524 sec  ( 48.0%)
  Split-RI-J                ....      57.324 sec  ( 50.5% of F)
  XC integration            ....      40.156 sec  ( 35.4% of F)
    Basis function eval.    ....       3.678 sec  (  9.2% of XC)
    Density eval.           ....      14.568 sec  ( 36.3% of XC)
    XC-Functional eval.     ....       0.354 sec  (  0.9% of XC)
    XC-Potential eval.      ....       8.801 sec  ( 21.9% of XC)
Diagonalization             ....      43.820 sec  ( 18.5%)
Density matrix formation    ....       2.799 sec  (  1.2%)
Population analysis         ....       4.030 sec  (  1.7%)
Initial guess               ....       2.850 sec  (  1.2%)
Orbital Transformation      ....       0.000 sec  (  0.0%)
Orbital Orthonormalization  ....       0.000 sec  (  0.0%)
DIIS solution               ....      44.305 sec  ( 18.8%)
Grid generation             ....       4.514 sec  (  1.9%)

Maximum memory used throughout the entire SCF-calculation: 612.1 MB

-------------------------   --------------------
FINAL SINGLE POINT ENERGY     -6171.837362006114
-------------------------   --------------------


                            ***************************************
                            *     ORCA property calculations      *
                            ***************************************

                                    ---------------------
                                    Active property flags
                                    ---------------------
   (+) Dipole Moment


------------------------------------------------------------------------------
                       ORCA ELECTRIC PROPERTIES CALCULATION
------------------------------------------------------------------------------

Dipole Moment Calculation                       ... on
Quadrupole Moment Calculation                   ... off
Polarizability Calculation                      ... off
GBWName                                         ... Fe3_O_piv_6_H2O_3_HighSpin.gbw
Electron density                                ... Fe3_O_piv_6_H2O_3_HighSpin.scfp
The origin for moment calculation is the CENTER OF MASS  = (21.571397,  7.833646 45.358575)

-------------
DIPOLE MOMENT
-------------
                                X             Y             Z
Electronic contribution:      1.39624      -0.74180      -1.60768
Nuclear contribution   :     -1.34374       0.87632       1.73769
                        -----------------------------------------
Total Dipole Moment    :      0.05250       0.13451       0.13000
                        -----------------------------------------
Magnitude (a.u.)       :      0.19430
Magnitude (Debye)      :      0.49386



--------------------
Rotational spectrum 
--------------------
 
Rotational constants in cm-1:     0.001885     0.001850     0.001827 
Rotational constants in MHz :    56.507660    55.458386    54.781194 

 Dipole components along the rotational axes: 
x,y,z [a.u.] :    -0.157819     0.097293    -0.058124 
x,y,z [Debye]:    -0.401145     0.247298    -0.147739 

 

Timings for individual modules:

Sum of individual times         ...      265.729 sec (=   4.429 min)
GTO integral calculation        ...       19.249 sec (=   0.321 min)   7.2 %
SCF iterations                  ...      246.480 sec (=   4.108 min)  92.8 %
                             ****ORCA TERMINATED NORMALLY****
TOTAL RUN TIME: 0 days 0 hours 4 minutes 41 seconds 273 msec
