
                                 *****************
                                 * O   R   C   A *
                                 *****************

                                            #,                                       
                                            ###                                      
                                            ####                                     
                                            #####                                    
                                            ######                                   
                                           ########,                                 
                                     ,,################,,,,,                         
                               ,,#################################,,                 
                          ,,##########################################,,             
                       ,#########################################, ''#####,          
                    ,#############################################,,   '####,        
                  ,##################################################,,,,####,       
                ,###########''''           ''''###############################       
              ,#####''   ,,,,##########,,,,          '''####'''          '####       
            ,##' ,,,,###########################,,,                        '##       
           ' ,,###''''                  '''############,,,                           
         ,,##''                                '''############,,,,        ,,,,,,###''
      ,#''                                            '''#######################'''  
     '                                                          ''''####''''         
             ,#######,   #######,   ,#######,      ##                                
            ,#'     '#,  ##    ##  ,#'     '#,    #''#        ######   ,####,        
            ##       ##  ##   ,#'  ##            #'  '#       #        #'  '#        
            ##       ##  #######   ##           ,######,      #####,   #    #        
            '#,     ,#'  ##    ##  '#,     ,#' ,#      #,         ##   #,  ,#        
             '#######'   ##     ##  '#######'  #'      '#     #####' # '####'        



                  #######################################################
                  #                        -***-                        #
                  #          Department of theory and spectroscopy      #
                  #    Directorship and core code : Frank Neese         #
                  #        Max Planck Institute fuer Kohlenforschung    #
                  #                Kaiser Wilhelm Platz 1               #
                  #                 D-45470 Muelheim/Ruhr               #
                  #                      Germany                        #
                  #                                                     #
                  #                  All rights reserved                #
                  #                        -***-                        #
                  #######################################################


                         Program Version 5.0.3 -  RELEASE  -


 With contributions from (in alphabetic order):
   Daniel Aravena         : Magnetic Suceptibility
   Michael Atanasov       : Ab Initio Ligand Field Theory (pilot matlab implementation)
   Alexander A. Auer      : GIAO ZORA, VPT2 properties, NMR spectrum
   Ute Becker             : Parallelization
   Giovanni Bistoni       : ED, misc. LED, open-shell LED, HFLD
   Martin Brehm           : Molecular dynamics
   Dmytro Bykov           : SCF Hessian
   Vijay G. Chilkuri      : MRCI spin determinant printing, contributions to CSF-ICE
   Dipayan Datta          : RHF DLPNO-CCSD density
   Achintya Kumar Dutta   : EOM-CC, STEOM-CC
   Dmitry Ganyushin       : Spin-Orbit,Spin-Spin,Magnetic field MRCI
   Miquel Garcia          : C-PCM and meta-GGA Hessian, CC/C-PCM, Gaussian charge scheme
   Yang Guo               : DLPNO-NEVPT2, F12-NEVPT2, CIM, IAO-localization
   Andreas Hansen         : Spin unrestricted coupled pair/coupled cluster methods
   Benjamin Helmich-Paris : MC-RPA, TRAH-SCF, COSX integrals
   Lee Huntington         : MR-EOM, pCC
   Robert Izsak           : Overlap fitted RIJCOSX, COSX-SCS-MP3, EOM
   Marcus Kettner         : VPT2
   Christian Kollmar      : KDIIS, OOCD, Brueckner-CCSD(T), CCSD density, CASPT2, CASPT2-K
   Simone Kossmann        : Meta GGA functionals, TD-DFT gradient, OOMP2, MP2 Hessian
   Martin Krupicka        : Initial AUTO-CI
   Lucas Lang             : DCDCAS
   Marvin Lechner         : AUTO-CI (C++ implementation), FIC-MRCC
   Dagmar Lenk            : GEPOL surface, SMD
   Dimitrios Liakos       : Extrapolation schemes; Compound Job, initial MDCI parallelization
   Dimitrios Manganas     : Further ROCIS development; embedding schemes
   Dimitrios Pantazis     : SARC Basis sets
   Anastasios Papadopoulos: AUTO-CI, single reference methods and gradients
   Taras Petrenko         : DFT Hessian,TD-DFT gradient, ASA, ECA, R-Raman, ABS, FL, XAS/XES, NRVS
   Peter Pinski           : DLPNO-MP2, DLPNO-MP2 Gradient
   Christoph Reimann      : Effective Core Potentials
   Marius Retegan         : Local ZFS, SOC
   Christoph Riplinger    : Optimizer, TS searches, QM/MM, DLPNO-CCSD(T), (RO)-DLPNO pert. Triples
   Tobias Risthaus        : Range-separated hybrids, TD-DFT gradient, RPA, STAB
   Michael Roemelt        : Original ROCIS implementation
   Masaaki Saitow         : Open-shell DLPNO-CCSD energy and density
   Barbara Sandhoefer     : DKH picture change effects
   Avijit Sen             : IP-ROCIS
   Kantharuban Sivalingam : CASSCF convergence, NEVPT2, FIC-MRCI
   Bernardo de Souza      : ESD, SOC TD-DFT
   Georgi Stoychev        : AutoAux, RI-MP2 NMR, DLPNO-MP2 response
   Willem Van den Heuvel  : Paramagnetic NMR
   Boris Wezisla          : Elementary symmetry handling
   Frank Wennmohs         : Technical directorship


 We gratefully acknowledge several colleagues who have allowed us to
 interface, adapt or use parts of their codes:
   Stefan Grimme, W. Hujo, H. Kruse, P. Pracht,  : VdW corrections, initial TS optimization,
                  C. Bannwarth, S. Ehlert          DFT functionals, gCP, sTDA/sTD-DF
   Ed Valeev, F. Pavosevic, A. Kumar             : LibInt (2-el integral package), F12 methods
   Garnet Chan, S. Sharma, J. Yang, R. Olivares  : DMRG
   Ulf Ekstrom                                   : XCFun DFT Library
   Mihaly Kallay                                 : mrcc  (arbitrary order and MRCC methods)
   Jiri Pittner, Ondrej Demel                    : Mk-CCSD
   Frank Weinhold                                : gennbo (NPA and NBO analysis)
   Christopher J. Cramer and Donald G. Truhlar   : smd solvation model
   Lars Goerigk                                  : TD-DFT with DH, B97 family of functionals
   V. Asgeirsson, H. Jonsson                     : NEB implementation
   FAccTs GmbH                                   : IRC, NEB, NEB-TS, DLPNO-Multilevel, CI-OPT
                                                   MM, QMMM, 2- and 3-layer-ONIOM, Crystal-QMMM,
                                                   LR-CPCM, SF, NACMEs, symmetry and pop. for TD-DFT,
                                                   nearIR, NL-DFT gradient (VV10), updates on ESD,
                                                   ML-optimized integration grids
   S Lehtola, MJT Oliveira, MAL Marques          : LibXC Library
   Liviu Ungur et al                             : ANISO software


 Your calculation uses the libint2 library for the computation of 2-el integrals
 For citations please refer to: http://libint.valeyev.net

 Your ORCA version has been built with support for libXC version: 5.1.0
 For citations please refer to: https://tddft.org/programs/libxc/

 This ORCA versions uses:
   CBLAS   interface :  Fast vector & matrix operations
   LAPACKE interface :  Fast linear algebra routines
   SCALAPACK package :  Parallel linear algebra routines
   Shared memory     :  Shared parallel matrices
   BLAS/LAPACK       :  OpenBLAS 0.3.15  USE64BITINT DYNAMIC_ARCH NO_AFFINITY Zen SINGLE_THREADED
        Core in use  :  Zen
   Copyright (c) 2011-2014, The OpenBLAS Project


================================================================================

----- Orbital basis set information -----
Your calculation utilizes the basis: def2-TZVP
   F. Weigend and R. Ahlrichs, Phys. Chem. Chem. Phys. 7, 3297 (2005).

----- AuxJ basis set information -----
Your calculation utilizes the auxiliary basis: def2/J
   F. Weigend, Phys. Chem. Chem. Phys. 8, 1057 (2006).

================================================================================
                                        WARNINGS
                       Please study these warnings very carefully!
================================================================================


WARNING: your system is open-shell and RHF/RKS was chosen
  ===> : WILL SWITCH to UHF/UKS


INFO   : the flag for use of the SHARK integral package has been found!

================================================================================
                                       INPUT FILE
================================================================================
NAME = Fe_EtOH_3_HighSpin.inp
|  1> ! PBE def2-TZVP
|  2> %pal nprocs 32 end
|  3> %maxcore 3000
|  4> 
|  5> * xyz 3 6
|  6>   Fe  0.50351475542534     -0.58648829044104     -0.16866363013748
|  7>   O   -0.18336546739423      0.88746104844726     -1.08250498166829
|  8>   O   -0.64871286894009     -1.48946077478038      0.98055434262977
|  9>   O   2.27865313248318     -1.14529972552886     -0.33930404065523
| 10>   H   -1.14893183295796      0.99214608051140     -1.19009278362485
| 11>   C   3.46496071091656     -0.85231608777546     -1.39667714064035
| 12>   H   -1.46431105680591     -1.06034171769767      1.30527934256603
| 13>   C   0.44044049641806      2.18999673049048     -1.84516727421546
| 14>   H   2.67865676805412     -1.74506845358789      0.31981439768693
| 15>   C   -0.67838251850244     -2.98108200346903      1.69744081122332
| 16>   H   0.73972968936425      1.75305209878891     -2.79805314169007
| 17>   H   1.28437424133712      2.43643929135677     -1.20200660420438
| 18>   C   -0.61804786022459      3.21797250803735     -1.92671731123101
| 19>   H   -1.47110950652487      2.91445629824412     -2.54012862752588
| 20>   H   -0.14948432144531      4.05832054768281     -2.46633752186762
| 21>   H   -0.92839054663857      3.60589375975738     -0.95534822665590
| 22>   H   -0.15836070466258     -3.58105485636665      0.95198177072890
| 23>   C   -2.08749654987733     -3.34214020391009      1.93775681774907
| 24>   H   -0.08048805048906     -2.78386511088875      2.58755570098206
| 25>   H   -2.67036881040845     -3.48433099252398      1.02688873740427
| 26>   H   -2.59266426290002     -2.68840249777627      2.65399523376576
| 27>   H   -2.02944924040415     -4.32899596538992      2.43130704702576
| 28>   H   3.92856990351259      0.03454224998303     -0.96275116218370
| 29>   H   2.90774013996318     -0.63387310866008     -2.30687371749693
| 30>   C   4.33362083345252     -2.04901437565184     -1.46316455944553
| 31>   H   4.84257320338818     -2.26626624319184     -0.51973935478080
| 32>   H   5.13101277833462     -1.78029007316024     -2.17515661867524
| 33>   H   3.83291694552577     -2.93043013249949     -1.86549750506312
| 34> *
| 35> 
| 36>                          ****END OF INPUT****
================================================================================

                       ****************************
                       * Single Point Calculation *
                       ****************************

---------------------------------
CARTESIAN COORDINATES (ANGSTROEM)
---------------------------------
  Fe     0.503515   -0.586488   -0.168664
  O     -0.183365    0.887461   -1.082505
  O     -0.648713   -1.489461    0.980554
  O      2.278653   -1.145300   -0.339304
  H     -1.148932    0.992146   -1.190093
  C      3.464961   -0.852316   -1.396677
  H     -1.464311   -1.060342    1.305279
  C      0.440440    2.189997   -1.845167
  H      2.678657   -1.745068    0.319814
  C     -0.678383   -2.981082    1.697441
  H      0.739730    1.753052   -2.798053
  H      1.284374    2.436439   -1.202007
  C     -0.618048    3.217973   -1.926717
  H     -1.471110    2.914456   -2.540129
  H     -0.149484    4.058321   -2.466338
  H     -0.928391    3.605894   -0.955348
  H     -0.158361   -3.581055    0.951982
  C     -2.087497   -3.342140    1.937757
  H     -0.080488   -2.783865    2.587556
  H     -2.670369   -3.484331    1.026889
  H     -2.592664   -2.688402    2.653995
  H     -2.029449   -4.328996    2.431307
  H      3.928570    0.034542   -0.962751
  H      2.907740   -0.633873   -2.306874
  C      4.333621   -2.049014   -1.463165
  H      4.842573   -2.266266   -0.519739
  H      5.131013   -1.780290   -2.175157
  H      3.832917   -2.930430   -1.865498

----------------------------
CARTESIAN COORDINATES (A.U.)
----------------------------
  NO LB      ZA    FRAG     MASS         X           Y           Z
   0 Fe   26.0000    0    55.850    0.951505   -1.108302   -0.318728
   1 O     8.0000    0    15.999   -0.346511    1.677058   -2.045638
   2 O     8.0000    0    15.999   -1.225890   -2.814673    1.852979
   3 O     8.0000    0    15.999    4.306030   -2.164303   -0.641192
   4 H     1.0000    0     1.008   -2.171167    1.874884   -2.248949
   5 C     6.0000    0    12.011    6.547827   -1.610644   -2.639337
   6 H     1.0000    0     1.008   -2.767147   -2.003755    2.466620
   7 C     6.0000    0    12.011    0.832312    4.138494   -3.486861
   8 H     1.0000    0     1.008    5.061928   -3.297701    0.604362
   9 C     6.0000    0    12.011   -1.281957   -5.633429    3.207698
  10 H     1.0000    0     1.008    1.397887    3.312788   -5.287554
  11 H     1.0000    0     1.008    2.427116    4.604203   -2.271463
  12 C     6.0000    0    12.011   -1.167941    6.081087   -3.640968
  13 H     1.0000    0     1.008   -2.779994    5.507524   -4.800147
  14 H     1.0000    0     1.008   -0.282484    7.669114   -4.660702
  15 H     1.0000    0     1.008   -1.754404    6.814152   -1.805347
  16 H     1.0000    0     1.008   -0.299258   -6.767213    1.798985
  17 C     6.0000    0    12.011   -3.944797   -6.315730    3.661830
  18 H     1.0000    0     1.008   -0.152100   -5.260743    4.889772
  19 H     1.0000    0     1.008   -5.046266   -6.584431    1.940538
  20 H     1.0000    0     1.008   -4.899425   -5.080344    5.015324
  21 H     1.0000    0     1.008   -3.835103   -8.180617    4.594504
  22 H     1.0000    0     1.008    7.423921    0.065275   -1.819336
  23 H     1.0000    0     1.008    5.494833   -1.197847   -4.359360
  24 C     6.0000    0    12.011    8.189357   -3.872076   -2.764980
  25 H     1.0000    0     1.008    9.151137   -4.282623   -0.982165
  26 H     1.0000    0     1.008    9.696209   -3.364261   -4.110450
  27 H     1.0000    0     1.008    7.243163   -5.537710   -3.525279

--------------------------------
INTERNAL COORDINATES (ANGSTROEM)
--------------------------------
 Fe     0   0   0     0.000000000000     0.00000000     0.00000000
 O      1   0   0     1.865324934127     0.00000000     0.00000000
 O      1   2   0     1.861099071720   117.25300720     0.00000000
 O      1   2   3     1.868824397152   122.77366911   181.38172617
 H      2   1   3     0.977165542463   120.16279573   339.91564734
 C      4   1   2     1.615921704543   134.65743532   343.67630928
 H      3   1   2     0.977133509192   120.59042995   341.23795619
 C      2   1   3     1.633213659004   135.91596769   160.45182025
 H      4   1   2     0.976812444326   120.72758948   162.66775197
 C      3   1   2     1.655216114842   135.70616031   161.84249911
 H      8   2   1     1.090177099659   101.14947879    79.15005667
 H      8   2   1     1.089318020171   101.57373971   322.38493742
 C      8   2   1     1.477762568516   107.87687797   200.55576224
 H     13   8   2     1.093668004906   113.36559029   295.71525129
 H     13   8   2     1.103143956760   104.63540643   181.19901544
 H     13   8   2     1.091033170447   113.69988422    65.29507135
 H     10   3   1     1.089081857409   101.03655865   329.08084561
 C     10   3   1     1.474353132908   107.96377721   207.27642002
 H     10   3   1     1.090264561733   100.41388093    85.61398494
 H     18  10   3     1.090705712947   113.98865882    65.52760340
 H     18  10   3     1.093418892868   113.69809412   295.19221011
 H     18  10   3     1.104918826395   103.96464379   181.10518927
 H      6   4   1     1.090753386193   101.48660082    88.71054437
 H      6   4   1     1.089343797127   101.97993015   332.18598809
 C      6   4   1     1.480228961191   108.27824861   210.35709753
 H     25   6   4     1.093746773988   113.26067262   296.01846640
 H     25   6   4     1.102261020321   104.85936535   181.37724510
 H     25   6   4     1.090628222142   113.61092401    64.99292199

---------------------------
INTERNAL COORDINATES (A.U.)
---------------------------
 Fe     0   0   0     0.000000000000     0.00000000     0.00000000
 O      1   0   0     3.524953276276     0.00000000     0.00000000
 O      1   2   0     3.516967553645   117.25300720     0.00000000
 O      1   2   3     3.531566303008   122.77366911   181.38172617
 H      2   1   3     1.846575262759   120.16279573   339.91564734
 C      4   1   2     3.053649475445   134.65743532   343.67630928
 H      3   1   2     1.846514728650   120.59042995   341.23795619
 C      2   1   3     3.086326533697   135.91596769   160.45182025
 H      4   1   2     1.845908003982   120.72758948   162.66775197
 C      3   1   2     3.127905149504   135.70616031   161.84249911
 H      8   2   1     2.060136155827   101.14947879    79.15005667
 H      8   2   1     2.058512730868   101.57373971   322.38493742
 C      8   2   1     2.792566545456   107.87687797   200.55576224
 H     13   8   2     2.066733010704   113.36559029   295.71525129
 H     13   8   2     2.084639964567   104.63540643   181.19901544
 H     13   8   2     2.061753895168   113.69988422    65.29507135
 H     10   3   1     2.058066447926   101.03655865   329.08084561
 C     10   3   1     2.786123645885   107.96377721   207.27642002
 H     10   3   1     2.060301435195   100.41388093    85.61398494
 H     18  10   3     2.061135090172   113.98865882    65.52760340
 H     18  10   3     2.066262257175   113.69809412   295.19221011
 H     18  10   3     2.087993982100   103.96464379   181.10518927
 H      6   4   1     2.061225179551   101.48660082    88.71054437
 H      6   4   1     2.058561442257   101.97993015   332.18598809
 C      6   4   1     2.797227352151   108.27824861   210.35709753
 H     25   6   4     2.066881862697   113.26067262   296.01846640
 H     25   6   4     2.082971456503   104.85936535   181.37724510
 H     25   6   4     2.060988653775   113.61092401    64.99292199

---------------------
BASIS SET INFORMATION
---------------------
There are 4 groups of distinct atoms

 Group   1 Type Fe  : 17s11p7d1f contracted to 6s4p4d1f pattern {842111/6311/4111/1}
 Group   2 Type O   : 11s6p2d1f contracted to 5s3p2d1f pattern {62111/411/11/1}
 Group   3 Type H   : 5s1p contracted to 3s1p pattern {311/1}
 Group   4 Type C   : 11s6p2d1f contracted to 5s3p2d1f pattern {62111/411/11/1}

Atom   0Fe   basis set group =>   1
Atom   1O    basis set group =>   2
Atom   2O    basis set group =>   2
Atom   3O    basis set group =>   2
Atom   4H    basis set group =>   3
Atom   5C    basis set group =>   4
Atom   6H    basis set group =>   3
Atom   7C    basis set group =>   4
Atom   8H    basis set group =>   3
Atom   9C    basis set group =>   4
Atom  10H    basis set group =>   3
Atom  11H    basis set group =>   3
Atom  12C    basis set group =>   4
Atom  13H    basis set group =>   3
Atom  14H    basis set group =>   3
Atom  15H    basis set group =>   3
Atom  16H    basis set group =>   3
Atom  17C    basis set group =>   4
Atom  18H    basis set group =>   3
Atom  19H    basis set group =>   3
Atom  20H    basis set group =>   3
Atom  21H    basis set group =>   3
Atom  22H    basis set group =>   3
Atom  23H    basis set group =>   3
Atom  24C    basis set group =>   4
Atom  25H    basis set group =>   3
Atom  26H    basis set group =>   3
Atom  27H    basis set group =>   3
---------------------------------
AUXILIARY/J BASIS SET INFORMATION
---------------------------------
There are 4 groups of distinct atoms

 Group   1 Type Fe  : 19s5p5d3f3g contracted to 8s5p5d2f3g pattern {121111111/11111/11111/21/111}
 Group   2 Type O   : 12s5p4d2f1g contracted to 6s4p3d1f1g pattern {711111/2111/211/2/1}
 Group   3 Type H   : 5s2p1d contracted to 3s1p1d pattern {311/2/1}
 Group   4 Type C   : 12s5p4d2f1g contracted to 6s4p3d1f1g pattern {711111/2111/211/2/1}

Atom   0Fe   basis set group =>   1
Atom   1O    basis set group =>   2
Atom   2O    basis set group =>   2
Atom   3O    basis set group =>   2
Atom   4H    basis set group =>   3
Atom   5C    basis set group =>   4
Atom   6H    basis set group =>   3
Atom   7C    basis set group =>   4
Atom   8H    basis set group =>   3
Atom   9C    basis set group =>   4
Atom  10H    basis set group =>   3
Atom  11H    basis set group =>   3
Atom  12C    basis set group =>   4
Atom  13H    basis set group =>   3
Atom  14H    basis set group =>   3
Atom  15H    basis set group =>   3
Atom  16H    basis set group =>   3
Atom  17C    basis set group =>   4
Atom  18H    basis set group =>   3
Atom  19H    basis set group =>   3
Atom  20H    basis set group =>   3
Atom  21H    basis set group =>   3
Atom  22H    basis set group =>   3
Atom  23H    basis set group =>   3
Atom  24C    basis set group =>   4
Atom  25H    basis set group =>   3
Atom  26H    basis set group =>   3
Atom  27H    basis set group =>   3


           ************************************************************
           *        Program running with 32 parallel MPI-processes    *
           *              working on a common directory               *
           ************************************************************
------------------------------------------------------------------------------
                           ORCA GTO INTEGRAL CALCULATION
                           -- RI-GTO INTEGRALS CHOSEN --
------------------------------------------------------------------------------
------------------------------------------------------------------------------
                   ___                                                        
                  /   \      - P O W E R E D   B Y -                         
                 /     \                                                     
                 |  |  |   _    _      __       _____    __    __             
                 |  |  |  | |  | |    /  \     |  _  \  |  |  /  |          
                  \  \/   | |  | |   /    \    | | | |  |  | /  /          
                 / \  \   | |__| |  /  /\  \   | |_| |  |  |/  /          
                |  |  |   |  __  | /  /__\  \  |    /   |      \           
                |  |  |   | |  | | |   __   |  |    \   |  |\   \          
                \     /   | |  | | |  |  |  |  | |\  \  |  | \   \       
                 \___/    |_|  |_| |__|  |__|  |_| \__\ |__|  \__/        
                                                                              
                      - O R C A' S   B I G   F R I E N D -                    
                                      &                                       
                       - I N T E G R A L  F E E D E R -                       
                                                                              
 v1 FN, 2020, v2 2021                                                         
------------------------------------------------------------------------------


Reading SHARK input file Fe_EtOH_3_HighSpin.SHARKINP.tmp ... ok
----------------------
SHARK INTEGRAL PACKAGE
----------------------

Number of atoms                             ...     28
Number of basis functions                   ...    432
Number of shells                            ...    186
Maximum angular momentum                    ...      3
Integral batch strategy                     ... SHARK/LIBINT Hybrid
RI-J (if used) integral strategy            ... SPLIT-RIJ (Revised 2003 algorithm where possible)
Printlevel                                  ...      1
Contraction scheme used                     ... SEGMENTED contraction
Coulomb Range Separation                    ... NOT USED
Exchange Range Separation                   ... NOT USED
Finite Nucleus Model                        ... NOT USED
Auxiliary Coulomb fitting basis             ... AVAILABLE
   # of basis functions in Aux-J            ...    728
   # of shells in Aux-J                     ...    248
   Maximum angular momentum in Aux-J        ...      4
Auxiliary J/K fitting basis                 ... NOT available
Auxiliary Correlation fitting basis         ... NOT available
Auxiliary 'external' fitting basis          ... NOT available
Integral threshold                          ...     1.000000e-10
Primitive cut-off                           ...     1.000000e-11
Primitive pair pre-selection threshold      ...     1.000000e-11

Calculating pre-screening integrals         ... done (  0.0 sec) Dimension = 186
Organizing shell pair data                  ... done (  0.1 sec)
Shell pair information
Total number of shell pairs                 ...     17391
Shell pairs after pre-screening             ...     12373
Total number of primitive shell pairs       ...     52961
Primitive shell pairs kept                  ...     26222
          la=0 lb=0:   4005 shell pairs
          la=1 lb=0:   3677 shell pairs
          la=1 lb=1:    881 shell pairs
          la=2 lb=0:   1653 shell pairs
          la=2 lb=1:    785 shell pairs
          la=2 lb=2:    191 shell pairs
          la=3 lb=0:    681 shell pairs
          la=3 lb=1:    320 shell pairs
          la=3 lb=2:    148 shell pairs
          la=3 lb=3:     32 shell pairs

Calculating one electron integrals          ... done (  0.0 sec)
Calculating RI/J V-Matrix + Cholesky decomp.... done (  0.1 sec)
Calculating Nuclear repulsion               ... done (  0.0 sec) ENN=    821.951112313389 Eh

SHARK setup successfully completed in   0.5 seconds

Maximum memory used throughout the entire GTOINT-calculation: 28.4 MB


           ************************************************************
           *        Program running with 32 parallel MPI-processes    *
           *              working on a common directory               *
           ************************************************************
-------------------------------------------------------------------------------
                                 ORCA SCF
-------------------------------------------------------------------------------

------------
SCF SETTINGS
------------
Hamiltonian:
 Density Functional     Method          .... DFT(GTOs)
 Exchange Functional    Exchange        .... PBE
   PBE kappa parameter   XKappa         ....  0.804000
   PBE mue parameter    XMuePBE         ....  0.219520
 Correlation Functional Correlation     .... PBE
   PBE beta parameter  CBetaPBE         ....  0.066725
 LDA part of GGA corr.  LDAOpt          .... PW91-LDA
 Gradients option       PostSCFGGA      .... off
   Density functional embedding theory  .... OFF
   NL short-range parameter             ....  6.400000
 RI-approximation to the Coulomb term is turned on
   Number of AuxJ basis functions       .... 728


General Settings:
 Integral files         IntName         .... Fe_EtOH_3_HighSpin
 Hartree-Fock type      HFTyp           .... UHF
 Total Charge           Charge          ....    3
 Multiplicity           Mult            ....    6
 Number of Electrons    NEL             ....  101
 Basis Dimension        Dim             ....  432
 Nuclear Repulsion      ENuc            ....    821.9511123134 Eh

Convergence Acceleration:
 DIIS                   CNVDIIS         .... on
   Start iteration      DIISMaxIt       ....    12
   Startup error        DIISStart       ....  0.200000
   # of expansion vecs  DIISMaxEq       ....     5
   Bias factor          DIISBfac        ....   1.050
   Max. coefficient     DIISMaxC        ....  10.000
 Trust-Rad. Augm. Hess. CNVTRAH         .... auto
   Auto Start mean grad. ratio tolernc. ....  1.125000
   Auto Start start iteration           ....    20
   Auto Start num. interpolation iter.  ....    10
   Max. Number of Micro iterations      ....    16
   Max. Number of Macro iterations      .... Maxiter - #DIIS iter
   Number of Davidson start vectors     ....     2
   Converg. threshold I  (grad. norm)   ....   5.000e-05
   Converg. threshold II (energy diff.) ....   1.000e-06
   Grad. Scal. Fac. for Micro threshold ....   0.100
   Minimum threshold for Micro iter.    ....   0.010
   NR start threshold (gradient norm)   ....   0.001
   Initial trust radius                 ....   0.400
   Minimum AH scaling param. (alpha)    ....   1.000
   Maximum AH scaling param. (alpha)    .... 1000.000
   Orbital update algorithm             .... Taylor
   White noise on init. David. guess    .... on
   Maximum white noise                  ....   0.010
   Quad. conv. algorithm                .... NR
 SOSCF                  CNVSOSCF        .... off
 Level Shifting         CNVShift        .... on
   Level shift para.    LevelShift      ....    0.2500
   Turn off err/grad.   ShiftErr        ....    0.0010
 Zerner damping         CNVZerner       .... off
 Static damping         CNVDamp         .... on
   Fraction old density DampFac         ....    0.7000
   Max. Damping (<1)    DampMax         ....    0.9800
   Min. Damping (>=0)   DampMin         ....    0.0000
   Turn off err/grad.   DampErr         ....    0.1000
 Fernandez-Rico         CNVRico         .... off

SCF Procedure:
 Maximum # iterations   MaxIter         ....   125
 SCF integral mode      SCFMode         .... Direct
   Integral package                     .... SHARK and LIBINT hybrid scheme
 Reset frequency        DirectResetFreq ....    20
 Integral Threshold     Thresh          ....  1.000e-10 Eh
 Primitive CutOff       TCut            ....  1.000e-11 Eh

Convergence Tolerance:
 Convergence Check Mode ConvCheckMode   .... Total+1el-Energy
 Convergence forced     ConvForced      .... 0
 Energy Change          TolE            ....  1.000e-06 Eh
 1-El. energy change                    ....  1.000e-03 Eh
 DIIS Error             TolErr          ....  1.000e-06


Diagonalization of the overlap matrix:
Smallest eigenvalue                        ... 4.138e-04
Time for diagonalization                   ...    0.026 sec
Threshold for overlap eigenvalues          ... 1.000e-08
Number of eigenvalues below threshold      ... 0
Time for construction of square roots      ...    0.025 sec
Total time needed                          ...    0.054 sec

Time for model grid setup =    1.008 sec

------------------------------
INITIAL GUESS: MODEL POTENTIAL
------------------------------
Loading Hartree-Fock densities                     ... done
Calculating cut-offs                               ... done
Initializing the effective Hamiltonian             ... done
Setting up the integral package (SHARK)            ... done
Starting the Coulomb interaction                   ... done (   0.1 sec)
Reading the grid                                   ... done
Mapping shells                                     ... done
Starting the XC term evaluation                    ... done (   0.0 sec)
  promolecular density results
     # of electrons  =    103.993715531
     EX              =   -114.576870341
     EC              =     -3.691873113
     EX+EC           =   -118.268743454
Transforming the Hamiltonian                       ... done (   0.0 sec)
Diagonalizing the Hamiltonian                      ... done (   0.0 sec)
Back transforming the eigenvectors                 ... done (   0.0 sec)
Now organizing SCF variables                       ... done
                      ------------------
                      INITIAL GUESS DONE (   1.2 sec)
                      ------------------
-------------------
DFT GRID GENERATION
-------------------

General Integration Accuracy     IntAcc      ... 4.388
Radial Grid Type                 RadialGrid  ... OptM3 with GC (2021)
Angular Grid (max. ang.)         AngularGrid ... 4 (Lebedev-302)
Angular grid pruning method      GridPruning ... 4 (adaptive)
Weight generation scheme         WeightScheme... Becke
Basis function cutoff            BFCut       ... 1.0000e-10
Integration weight cutoff        WCut        ... 1.0000e-14
Angular grids for H and He will be reduced by one unit
Partially contracted basis set               ... off
Rotationally invariant grid construction     ... off

Total number of grid points                  ...   123475
Total number of batches                      ...     1943
Average number of points per batch           ...       63
Average number of grid points per atom       ...     4410
Time for grid setup =    0.527 sec

--------------
SCF ITERATIONS
--------------
ITER       Energy         Delta-E        Max-DP      RMS-DP      [F,P]     Damp
               ***  Starting incremental Fock matrix formation  ***
  0  -1726.3862635223   0.000000000000 0.19742183  0.00100420  0.2784549 0.7000
  1  -1726.3700395789   0.016223943382 0.06820743  0.00071346  0.2174746 0.7000
                               ***Turning on DIIS***
  2  -1726.6196746007  -0.249635021838 0.09295651  0.00070642  0.0776756 0.0000
  3  -1726.7971092774  -0.177434676662 0.01082527  0.00013746  0.1510728 0.7000
  4  -1726.8657694865  -0.068660209145 0.01270051  0.00015454  0.1133517 0.7000
  5  -1726.9303250324  -0.064555545870 0.03727285  0.00042553  0.0771004 0.0000
  6  -1727.0408008993  -0.110475866913 0.00865320  0.00011569  0.0346381 0.0000
  7  -1727.0506395923  -0.009838692945 0.00709254  0.00012979  0.0357859 0.0000
  8  -1727.0634046662  -0.012765073903 0.00839497  0.00007124  0.0070630 0.0000
  9  -1727.0637490363  -0.000344370131 0.00411946  0.00003406  0.0129995 0.0000
 10  -1727.0649509630  -0.001201926692 0.00420697  0.00002110  0.0066130 0.0000
 11  -1727.0652844372  -0.000333474233 0.00184103  0.00001403  0.0046651 0.0000
 12  -1727.0654876699  -0.000203232710 0.00074264  0.00000905  0.0015608 0.0000
 13  -1727.0655504435  -0.000062773610 0.00049711  0.00000691  0.0011765 0.0000
 14  -1727.0655886343  -0.000038190803 0.00268266  0.00003734  0.0003862 0.0000
 15  -1727.0655620325   0.000026601823 0.00019503  0.00000234  0.0030580 0.0000
 16  -1727.0655953944  -0.000033361841 0.00029926  0.00000242  0.0023577 0.0000
 17  -1727.0656241254  -0.000028731076 0.00015933  0.00000189  0.0014518 0.0000
 18  -1727.0656355355  -0.000011410094 0.00027153  0.00000188  0.0012858 0.0000
 19  -1727.0656450205  -0.000009484983 0.00102555  0.00001062  0.0005413 0.0000
               *** Restarting incremental Fock matrix formation ***
                                   *** Resetting DIIS ***

 WARNING: the maximum gradient error descreased on average only by a factor   1.1
          during the last 20 iterations

                      *** Initiating the TRAH-SCF procedure ***


TRAH GRID
---------

General Integration Accuracy     IntAcc      ... 3.467
Radial Grid Type                 RadialGrid  ... OptM3 with GC (2021)
Angular Grid (max. ang.)         AngularGrid ... 1 (Lebedev-50)
Angular grid pruning method      GridPruning ... 4 (adaptive)
Weight generation scheme         WeightScheme... Becke
Basis function cutoff            BFCut       ... 1.0000e-10
Integration weight cutoff        WCut        ... 1.0000e-14
Angular grids for H and He will be reduced by one unit
Partially contracted basis set               ... off
Rotationally invariant grid construction     ... off

Total number of grid points                  ...    19603
Total number of batches                      ...      317
Average number of points per batch           ...       61
Average number of grid points per atom       ...      700

 --------------------------------------------------------------------------------------------
   Iter.        energy            ||Error||_2        Shift      TRadius  Mac/Mic        Rej.
 --------------------------------------------------------------------------------------------
    0      -1727.065635601319     6.507389e-03                     0.400 (TRAH MAcro)   No
WARNING : small    HOMO - LUMO gap : (op =  beta) 0.019311
    0     dE    -9.314547e-06     5.077343e-03    -9.3145e-06      0.001 (TRAH MIcro)
    0     dE    -1.691271e-05     1.943610e-03    -1.6912e-05      0.005 (TRAH MIcro)
    0     dE    -1.826241e-05     2.411893e-04    -1.8262e-05      0.006 (TRAH MIcro)
    1      -1727.065653754396     2.423802e-04                           (NR   MAcro)
    1     dE    -1.462009e-08     1.779092e-04                           (NR   MIcro)
    1     dE    -2.280381e-08     9.770659e-05                           (NR   MIcro)
    1     dE    -2.548317e-08     5.076786e-05                           (NR   MIcro)
    1     dE    -2.639340e-08     1.559859e-05                           (NR   MIcro)
    1     dE    -2.653755e-08     9.496563e-06                           (NR   MIcro)
    1     dE    -2.656466e-08     4.508975e-06                           (NR   MIcro)
    2      -1727.065653780824     4.510082e-06                           (NR   MAcro)

               *****************************************************
               *                     SUCCESS                       *
               *           SCF CONVERGED AFTER  32 CYCLES          *
               *****************************************************


----------------
TOTAL SCF ENERGY
----------------

Total Energy       :        -1727.06565378 Eh          -46995.84566 eV

Components:
Nuclear Repulsion  :          821.95111231 Eh           22366.42685 eV
Electronic Energy  :        -2549.01676609 Eh          -69362.27252 eV
One Electron Energy:        -3963.05115653 Eh         -107840.10445 eV
Two Electron Energy:         1414.03439043 Eh           38477.83194 eV

Virial components:
Potential Energy   :        -3450.64902198 Eh          -93896.93352 eV
Kinetic Energy     :         1723.58336820 Eh           46901.08785 eV
Virial Ratio       :            2.00202038


DFT components:
N(Alpha)           :       53.000015727729 electrons
N(Beta)            :       48.000013445246 electrons
N(Total)           :      101.000029172975 electrons
E(X)               :     -115.424555259558 Eh       
E(C)               :       -3.592663582316 Eh       
E(XC)              :     -119.017218841874 Eh       
DFET-embed. en.    :        0.000000000000 Eh       

---------------
SCF CONVERGENCE
---------------

  Last Energy change         ...   -2.6428e-08  Tolerance :   1.0000e-06
  Last Orbital Gradient      ...    4.5101e-06  Tolerance :   5.0000e-05
  Last Orbital Rotation      ...    3.2916e-04

             **** THE GBW FILE WAS UPDATED (Fe_EtOH_3_HighSpin.gbw) ****
             **** DENSITY Fe_EtOH_3_HighSpin.scfp WAS UPDATED ****
             **** ENERGY FILE WAS UPDATED (Fe_EtOH_3_HighSpin.en.tmp) ****
----------------------
UHF SPIN CONTAMINATION
----------------------

Warning: in a DFT calculation there is little theoretical justification to 
         calculate <S**2> as in Hartree-Fock theory. We will do it anyways
         but you should keep in mind that the values have only limited relevance

Expectation value of <S**2>     :     8.756165
Ideal value S*(S+1) for S=2.5   :     8.750000
Deviation                       :     0.006165

             **** THE GBW FILE WAS UPDATED (Fe_EtOH_3_HighSpin.gbw) ****
             **** DENSITY Fe_EtOH_3_HighSpin.scfp WAS UPDATED ****
----------------
ORBITAL ENERGIES
----------------
                 SPIN UP ORBITALS
  NO   OCC          E(Eh)            E(eV) 
   0   1.0000    -255.311893     -6947.3898 
   1   1.0000     -30.166842      -820.8815 
   2   1.0000     -26.101738      -710.2644 
   3   1.0000     -26.100069      -710.2190 
   4   1.0000     -26.098246      -710.1694 
   5   1.0000     -19.304297      -525.2966 
   6   1.0000     -19.303684      -525.2799 
   7   1.0000     -19.303461      -525.2739 
   8   1.0000     -10.386505      -282.6312 
   9   1.0000     -10.385071      -282.5921 
  10   1.0000     -10.384579      -282.5788 
  11   1.0000     -10.273584      -279.5584 
  12   1.0000     -10.271780      -279.5093 
  13   1.0000     -10.271396      -279.4989 
  14   1.0000      -3.952943      -107.5650 
  15   1.0000      -2.768268       -75.3284 
  16   1.0000      -2.765776       -75.2606 
  17   1.0000      -2.762679       -75.1763 
  18   1.0000      -1.446971       -39.3741 
  19   1.0000      -1.442887       -39.2630 
  20   1.0000      -1.440860       -39.2078 
  21   1.0000      -1.125477       -30.6258 
  22   1.0000      -1.124782       -30.6069 
  23   1.0000      -1.123080       -30.5606 
  24   1.0000      -1.009534       -27.4708 
  25   1.0000      -1.008431       -27.4408 
  26   1.0000      -1.001448       -27.2508 
  27   1.0000      -0.970078       -26.3972 
  28   1.0000      -0.962568       -26.1928 
  29   1.0000      -0.959278       -26.1033 
  30   1.0000      -0.899613       -24.4797 
  31   1.0000      -0.891181       -24.2503 
  32   1.0000      -0.885695       -24.1010 
  33   1.0000      -0.878705       -23.9108 
  34   1.0000      -0.875753       -23.8304 
  35   1.0000      -0.860531       -23.4162 
  36   1.0000      -0.843212       -22.9450 
  37   1.0000      -0.840657       -22.8754 
  38   1.0000      -0.835347       -22.7310 
  39   1.0000      -0.807262       -21.9667 
  40   1.0000      -0.805310       -21.9136 
  41   1.0000      -0.788260       -21.4496 
  42   1.0000      -0.779378       -21.2080 
  43   1.0000      -0.770085       -20.9551 
  44   1.0000      -0.760973       -20.7071 
  45   1.0000      -0.756296       -20.5799 
  46   1.0000      -0.752114       -20.4661 
  47   1.0000      -0.739718       -20.1287 
  48   1.0000      -0.733686       -19.9646 
  49   1.0000      -0.730321       -19.8730 
  50   1.0000      -0.718222       -19.5438 
  51   1.0000      -0.717248       -19.5173 
  52   1.0000      -0.715510       -19.4700 
  53   0.0000      -0.526441       -14.3252 
  54   0.0000      -0.462123       -12.5750 
  55   0.0000      -0.453006       -12.3269 
  56   0.0000      -0.441833       -12.0229 
  57   0.0000      -0.418635       -11.3916 
  58   0.0000      -0.408964       -11.1285 
  59   0.0000      -0.403647       -10.9838 
  60   0.0000      -0.383592       -10.4381 
  61   0.0000      -0.363035        -9.8787 
  62   0.0000      -0.340647        -9.2695 
  63   0.0000      -0.330021        -8.9803 
  64   0.0000      -0.326421        -8.8824 
  65   0.0000      -0.320871        -8.7314 
  66   0.0000      -0.310144        -8.4394 
  67   0.0000      -0.303694        -8.2639 
  68   0.0000      -0.289175        -7.8688 
  69   0.0000      -0.283407        -7.7119 
  70   0.0000      -0.271383        -7.3847 
  71   0.0000      -0.266600        -7.2546 
  72   0.0000      -0.265746        -7.2313 
  73   0.0000      -0.259472        -7.0606 
  74   0.0000      -0.258813        -7.0427 
  75   0.0000      -0.247044        -6.7224 
  76   0.0000      -0.243600        -6.6287 
  77   0.0000      -0.240598        -6.5470 
  78   0.0000      -0.231811        -6.3079 
  79   0.0000      -0.228858        -6.2275 
  80   0.0000      -0.219848        -5.9824 
  81   0.0000      -0.214177        -5.8281 
  82   0.0000      -0.201363        -5.4794 
  83   0.0000      -0.193869        -5.2755 
  84   0.0000      -0.192768        -5.2455 
  85   0.0000      -0.179847        -4.8939 
  86   0.0000      -0.156997        -4.2721 
  87   0.0000      -0.153544        -4.1781 
  88   0.0000      -0.149929        -4.0798 
  89   0.0000      -0.144206        -3.9240 
  90   0.0000      -0.136897        -3.7251 
  91   0.0000      -0.130429        -3.5491 
  92   0.0000      -0.122746        -3.3401 
  93   0.0000      -0.121345        -3.3020 
  94   0.0000      -0.119848        -3.2612 
  95   0.0000      -0.110126        -2.9967 
  96   0.0000      -0.102510        -2.7894 
  97   0.0000      -0.094200        -2.5633 
  98   0.0000      -0.088195        -2.3999 
  99   0.0000      -0.079144        -2.1536 
 100   0.0000      -0.069494        -1.8910 
 101   0.0000      -0.057410        -1.5622 
 102   0.0000      -0.038070        -1.0359 
 103   0.0000      -0.029936        -0.8146 
 104   0.0000      -0.004086        -0.1112 
 105   0.0000       0.001326         0.0361 
 106   0.0000       0.003393         0.0923 
 107   0.0000       0.017379         0.4729 
 108   0.0000       0.019760         0.5377 
 109   0.0000       0.025660         0.6983 
 110   0.0000       0.033998         0.9251 
 111   0.0000       0.040745         1.1087 
 112   0.0000       0.057454         1.5634 
 113   0.0000       0.059200         1.6109 
 114   0.0000       0.061598         1.6762 
 115   0.0000       0.062754         1.7076 
 116   0.0000       0.065525         1.7830 
 117   0.0000       0.069970         1.9040 
 118   0.0000       0.074817         2.0359 
 119   0.0000       0.079302         2.1579 
 120   0.0000       0.083958         2.2846 
 121   0.0000       0.086764         2.3610 
 122   0.0000       0.094171         2.5625 
 123   0.0000       0.095591         2.6012 
 124   0.0000       0.099693         2.7128 
 125   0.0000       0.109834         2.9887 
 126   0.0000       0.111702         3.0396 
 127   0.0000       0.126941         3.4543 
 128   0.0000       0.137079         3.7301 
 129   0.0000       0.144768         3.9393 
 130   0.0000       0.158149         4.3035 
 131   0.0000       0.161306         4.3894 
 132   0.0000       0.167882         4.5683 
 133   0.0000       0.188843         5.1387 
 134   0.0000       0.202265         5.5039 
 135   0.0000       0.212212         5.7746 
 136   0.0000       0.242310         6.5936 
 137   0.0000       0.255897         6.9633 
 138   0.0000       0.294112         8.0032 
 139   0.0000       0.303413         8.2563 
 140   0.0000       0.319920         8.7055 
 141   0.0000       0.334815         9.1108 
 142   0.0000       0.341598         9.2953 
 143   0.0000       0.346336         9.4243 
 144   0.0000       0.358820         9.7640 
 145   0.0000       0.375842        10.2272 
 146   0.0000       0.383925        10.4471 
 147   0.0000       0.387510        10.5447 
 148   0.0000       0.396144        10.7796 
 149   0.0000       0.418626        11.3914 
 150   0.0000       0.424676        11.5560 
 151   0.0000       0.431726        11.7479 
 152   0.0000       0.459416        12.5013 
 153   0.0000       0.463377        12.6091 
 154   0.0000       0.485520        13.2117 
 155   0.0000       0.500485        13.6189 
 156   0.0000       0.534080        14.5331 
 157   0.0000       0.544491        14.8164 
 158   0.0000       0.550435        14.9781 
 159   0.0000       0.565488        15.3877 
 160   0.0000       0.583406        15.8753 
 161   0.0000       0.588223        16.0064 
 162   0.0000       0.596558        16.2332 
 163   0.0000       0.599101        16.3024 
 164   0.0000       0.603040        16.4096 
 165   0.0000       0.607196        16.5226 
 166   0.0000       0.618989        16.8435 
 167   0.0000       0.638289        17.3687 
 168   0.0000       0.655164        17.8279 
 169   0.0000       0.680504        18.5175 
 170   0.0000       0.690815        18.7980 
 171   0.0000       0.695399        18.9228 
 172   0.0000       0.712357        19.3842 
 173   0.0000       0.715528        19.4705 
 174   0.0000       0.719536        19.5796 
 175   0.0000       0.736597        20.0438 
 176   0.0000       0.797456        21.6999 
 177   0.0000       0.801944        21.8220 
 178   0.0000       0.824917        22.4471 
 179   0.0000       0.872950        23.7542 
 180   0.0000       0.892380        24.2829 
 181   0.0000       0.928725        25.2719 
 182   0.0000       0.955177        25.9917 
 183   0.0000       0.988960        26.9110 
 184   0.0000       1.009729        27.4761 
 185   0.0000       1.022039        27.8111 
 186   0.0000       1.029292        28.0084 
 187   0.0000       1.045217        28.4418 
 188   0.0000       1.048757        28.5381 
 189   0.0000       1.052102        28.6292 
 190   0.0000       1.067760        29.0552 
 191   0.0000       1.075106        29.2551 
 192   0.0000       1.077915        29.3316 
 193   0.0000       1.081682        29.4341 
 194   0.0000       1.090050        29.6618 
 195   0.0000       1.090860        29.6838 
 196   0.0000       1.099197        29.9107 
 197   0.0000       1.106648        30.1134 
 198   0.0000       1.117361        30.4049 
 199   0.0000       1.125453        30.6251 
 200   0.0000       1.128833        30.7171 
 201   0.0000       1.132369        30.8133 
 202   0.0000       1.147122        31.2148 
 203   0.0000       1.148344        31.2480 
 204   0.0000       1.157307        31.4919 
 205   0.0000       1.168297        31.7910 
 206   0.0000       1.180355        32.1191 
 207   0.0000       1.185973        32.2720 
 208   0.0000       1.190107        32.3845 
 209   0.0000       1.231288        33.5050 
 210   0.0000       1.249606        34.0035 
 211   0.0000       1.260893        34.3106 
 212   0.0000       1.263212        34.3737 
 213   0.0000       1.269178        34.5361 
 214   0.0000       1.274386        34.6778 
 215   0.0000       1.284454        34.9518 
 216   0.0000       1.309142        35.6236 
 217   0.0000       1.310966        35.6732 
 218   0.0000       1.313498        35.7421 
 219   0.0000       1.379019        37.5250 
 220   0.0000       1.400342        38.1052 
 221   0.0000       1.424253        38.7559 
 222   0.0000       1.430363        38.9222 
 223   0.0000       1.436056        39.0771 
 224   0.0000       1.444625        39.3102 
 225   0.0000       1.454421        39.5768 
 226   0.0000       1.457061        39.6486 
 227   0.0000       1.463500        39.8239 
 228   0.0000       1.473174        40.0871 
 229   0.0000       1.492911        40.6242 
 230   0.0000       1.507094        41.0101 
 231   0.0000       1.527640        41.5692 
 232   0.0000       1.531781        41.6819 
 233   0.0000       1.557153        42.3723 
 234   0.0000       1.602657        43.6105 
 235   0.0000       1.604971        43.6735 
 236   0.0000       1.616805        43.9955 
 237   0.0000       1.624137        44.1950 
 238   0.0000       1.654420        45.0191 
 239   0.0000       1.705684        46.4140 
 240   0.0000       1.715461        46.6801 
 241   0.0000       1.750137        47.6236 
 242   0.0000       1.762434        47.9583 
 243   0.0000       1.770688        48.1829 
 244   0.0000       1.787777        48.6479 
 245   0.0000       1.789501        48.6948 
 246   0.0000       1.803663        49.0802 
 247   0.0000       1.808724        49.2179 
 248   0.0000       1.811908        49.3045 
 249   0.0000       1.867908        50.8284 
 250   0.0000       1.877443        51.0878 
 251   0.0000       1.880330        51.1664 
 252   0.0000       1.883089        51.2415 
 253   0.0000       1.887155        51.3521 
 254   0.0000       1.894541        51.5531 
 255   0.0000       1.898639        51.6646 
 256   0.0000       1.907117        51.8953 
 257   0.0000       1.917470        52.1770 
 258   0.0000       1.933592        52.6157 
 259   0.0000       1.937234        52.7148 
 260   0.0000       1.943502        52.8854 
 261   0.0000       1.950419        53.0736 
 262   0.0000       1.958556        53.2950 
 263   0.0000       1.964119        53.4464 
 264   0.0000       2.030566        55.2545 
 265   0.0000       2.038847        55.4798 
 266   0.0000       2.075151        56.4677 
 267   0.0000       2.082028        56.6549 
 268   0.0000       2.083789        56.7028 
 269   0.0000       2.089344        56.8539 
 270   0.0000       2.094276        56.9882 
 271   0.0000       2.100170        57.1485 
 272   0.0000       2.107423        57.3459 
 273   0.0000       2.108326        57.3705 
 274   0.0000       2.116935        57.6047 
 275   0.0000       2.118312        57.6422 
 276   0.0000       2.119776        57.6820 
 277   0.0000       2.121137        57.7191 
 278   0.0000       2.128321        57.9145 
 279   0.0000       2.177245        59.2458 
 280   0.0000       2.188973        59.5650 
 281   0.0000       2.210249        60.1439 
 282   0.0000       2.237326        60.8807 
 283   0.0000       2.240135        60.9572 
 284   0.0000       2.244911        61.0871 
 285   0.0000       2.250888        61.2498 
 286   0.0000       2.258706        61.4625 
 287   0.0000       2.265298        61.6419 
 288   0.0000       2.277161        61.9647 
 289   0.0000       2.294715        62.4424 
 290   0.0000       2.315662        63.0124 
 291   0.0000       2.383014        64.8451 
 292   0.0000       2.394064        65.1458 
 293   0.0000       2.397878        65.2496 
 294   0.0000       2.409925        65.5774 
 295   0.0000       2.420317        65.8602 
 296   0.0000       2.437187        66.3192 
 297   0.0000       2.473728        67.3136 
 298   0.0000       2.524970        68.7079 
 299   0.0000       2.550362        69.3989 
 300   0.0000       2.559056        69.6355 
 301   0.0000       2.562941        69.7412 
 302   0.0000       2.568454        69.8912 
 303   0.0000       2.573475        70.0278 
 304   0.0000       2.578716        70.1704 
 305   0.0000       2.579087        70.1805 
 306   0.0000       2.591173        70.5094 
 307   0.0000       2.599377        70.7326 
 308   0.0000       2.609838        71.0173 
 309   0.0000       2.615132        71.1614 
 310   0.0000       2.627186        71.4894 
 311   0.0000       2.635711        71.7213 
 312   0.0000       2.653009        72.1921 
 313   0.0000       2.661567        72.4249 
 314   0.0000       2.665558        72.5335 
 315   0.0000       2.683567        73.0236 
 316   0.0000       2.692219        73.2590 
 317   0.0000       2.703124        73.5557 
 318   0.0000       2.775993        75.5386 
 319   0.0000       2.778693        75.6121 
 320   0.0000       2.784798        75.7782 
 321   0.0000       2.801556        76.2342 
 322   0.0000       2.806765        76.3760 
 323   0.0000       2.826217        76.9053 
 324   0.0000       2.840320        77.2890 
 325   0.0000       2.840871        77.3040 
 326   0.0000       2.878741        78.3345 
 327   0.0000       2.882024        78.4239 
 328   0.0000       2.895338        78.7862 
 329   0.0000       2.932310        79.7922 
 330   0.0000       2.934883        79.8622 
 331   0.0000       2.938640        79.9645 
 332   0.0000       2.963249        80.6341 
 333   0.0000       2.986654        81.2710 
 334   0.0000       2.988860        81.3310 
 335   0.0000       2.999890        81.6312 
 336   0.0000       3.024645        82.3048 
 337   0.0000       3.042376        82.7873 
 338   0.0000       3.066328        83.4390 
 339   0.0000       3.103362        84.4468 
 340   0.0000       3.118694        84.8640 
 341   0.0000       3.204944        87.2110 
 342   0.0000       3.214058        87.4590 
 343   0.0000       3.215388        87.4951 
 344   0.0000       3.216923        87.5369 
 345   0.0000       3.221174        87.6526 
 346   0.0000       3.232445        87.9593 
 347   0.0000       3.270077        88.9833 
 348   0.0000       3.296748        89.7091 
 349   0.0000       3.307307        89.9964 
 350   0.0000       3.332852        90.6915 
 351   0.0000       3.349267        91.1382 
 352   0.0000       3.351724        91.2051 
 353   0.0000       3.397560        92.4523 
 354   0.0000       3.419758        93.0564 
 355   0.0000       3.421070        93.0920 
 356   0.0000       3.426268        93.2335 
 357   0.0000       3.440560        93.6224 
 358   0.0000       3.444472        93.7288 
 359   0.0000       3.450242        93.8859 
 360   0.0000       3.481794        94.7444 
 361   0.0000       3.489805        94.9624 
 362   0.0000       3.504622        95.3656 
 363   0.0000       3.510690        95.5307 
 364   0.0000       3.526461        95.9599 
 365   0.0000       3.594415        97.8090 
 366   0.0000       3.686249       100.3079 
 367   0.0000       3.714439       101.0750 
 368   0.0000       3.725736       101.3824 
 369   0.0000       3.752595       102.1133 
 370   0.0000       3.756116       102.2091 
 371   0.0000       3.765129       102.4544 
 372   0.0000       3.874116       105.4200 
 373   0.0000       3.884725       105.7087 
 374   0.0000       3.893034       105.9348 
 375   0.0000       3.909046       106.3705 
 376   0.0000       3.911108       106.4267 
 377   0.0000       3.912885       106.4750 
 378   0.0000       3.928949       106.9121 
 379   0.0000       3.931456       106.9804 
 380   0.0000       3.935513       107.0907 
 381   0.0000       4.046801       110.1190 
 382   0.0000       4.053391       110.2984 
 383   0.0000       4.061843       110.5284 
 384   0.0000       4.237211       115.3004 
 385   0.0000       4.241994       115.4305 
 386   0.0000       4.254620       115.7741 
 387   0.0000       4.522379       123.0602 
 388   0.0000       4.551326       123.8479 
 389   0.0000       4.555944       123.9735 
 390   0.0000       4.743214       129.0694 
 391   0.0000       4.745272       129.1254 
 392   0.0000       4.751069       129.2832 
 393   0.0000       4.771130       129.8291 
 394   0.0000       4.774823       129.9295 
 395   0.0000       4.776315       129.9701 
 396   0.0000       4.797519       130.5471 
 397   0.0000       4.805157       130.7550 
 398   0.0000       4.831356       131.4679 
 399   0.0000       4.853397       132.0676 
 400   0.0000       4.877408       132.7210 
 401   0.0000       4.898744       133.3016 
 402   0.0000       5.014111       136.4409 
 403   0.0000       5.093409       138.5987 
 404   0.0000       5.094637       138.6321 
 405   0.0000       5.493371       149.4822 
 406   0.0000       5.507215       149.8589 
 407   0.0000       5.519834       150.2023 
 408   0.0000       5.732800       155.9974 
 409   0.0000       5.760414       156.7488 
 410   0.0000       5.775353       157.1553 
 411   0.0000       5.905654       160.7010 
 412   0.0000       5.914744       160.9484 
 413   0.0000       5.939095       161.6110 
 414   0.0000       6.191986       168.4925 
 415   0.0000       6.201210       168.7435 
 416   0.0000       6.214995       169.1186 
 417   0.0000       6.236216       169.6961 
 418   0.0000       6.254475       170.1929 
 419   0.0000       6.286625       171.0678 
 420   0.0000       6.533903       177.7965 
 421   0.0000       6.538672       177.9263 
 422   0.0000       6.572178       178.8381 
 423   0.0000      21.477147       584.4229 
 424   0.0000      21.487865       584.7145 
 425   0.0000      21.516404       585.4911 
 426   0.0000      21.698699       590.4516 
 427   0.0000      21.703052       590.5701 
 428   0.0000      21.704742       590.6161 
 429   0.0000      42.739702      1163.0064 
 430   0.0000      42.786629      1164.2834 
 431   0.0000      42.807964      1164.8639 

                 SPIN DOWN ORBITALS
  NO   OCC          E(Eh)            E(eV) 
   0   1.0000    -255.310741     -6947.3585 
   1   1.0000     -30.094444      -818.9114 
   2   1.0000     -26.046841      -708.7706 
   3   1.0000     -26.044860      -708.7167 
   4   1.0000     -26.043918      -708.6910 
   5   1.0000     -19.298598      -525.1416 
   6   1.0000     -19.297562      -525.1134 
   7   1.0000     -19.297447      -525.1102 
   8   1.0000     -10.386069      -282.6193 
   9   1.0000     -10.384626      -282.5800 
  10   1.0000     -10.384122      -282.5663 
  11   1.0000     -10.273115      -279.5457 
  12   1.0000     -10.271349      -279.4976 
  13   1.0000     -10.270931      -279.4863 
  14   1.0000      -3.790408      -103.1422 
  15   1.0000      -2.610672       -71.0400 
  16   1.0000      -2.604767       -70.8793 
  17   1.0000      -2.603810       -70.8533 
  18   1.0000      -1.434892       -39.0454 
  19   1.0000      -1.430652       -38.9300 
  20   1.0000      -1.427926       -38.8558 
  21   1.0000      -1.122637       -30.5485 
  22   1.0000      -1.121665       -30.5221 
  23   1.0000      -1.120331       -30.4858 
  24   1.0000      -1.003505       -27.3068 
  25   1.0000      -1.001939       -27.2642 
  26   1.0000      -0.997485       -27.1429 
  27   1.0000      -0.953067       -25.9343 
  28   1.0000      -0.941811       -25.6280 
  29   1.0000      -0.938863       -25.5478 
  30   1.0000      -0.883909       -24.0524 
  31   1.0000      -0.876308       -23.8456 
  32   1.0000      -0.874000       -23.7828 
  33   1.0000      -0.856731       -23.3128 
  34   1.0000      -0.854081       -23.2407 
  35   1.0000      -0.852744       -23.2043 
  36   1.0000      -0.793947       -21.6044 
  37   1.0000      -0.790373       -21.5072 
  38   1.0000      -0.781943       -21.2777 
  39   1.0000      -0.764946       -20.8152 
  40   1.0000      -0.762935       -20.7605 
  41   1.0000      -0.757749       -20.6194 
  42   1.0000      -0.739060       -20.1109 
  43   1.0000      -0.738192       -20.0872 
  44   1.0000      -0.734434       -19.9850 
  45   1.0000      -0.718999       -19.5650 
  46   1.0000      -0.718068       -19.5396 
  47   1.0000      -0.715365       -19.4661 
  48   0.0000      -0.692026       -18.8310 
  49   0.0000      -0.688937       -18.7469 
  50   0.0000      -0.685209       -18.6455 
  51   0.0000      -0.662368       -18.0239 
  52   0.0000      -0.660895       -17.9839 
  53   0.0000      -0.504538       -13.7292 
  54   0.0000      -0.454141       -12.3578 
  55   0.0000      -0.444023       -12.0825 
  56   0.0000      -0.413075       -11.2403 
  57   0.0000      -0.410490       -11.1700 
  58   0.0000      -0.401919       -10.9368 
  59   0.0000      -0.397267       -10.8102 
  60   0.0000      -0.371833       -10.1181 
  61   0.0000      -0.353540        -9.6203 
  62   0.0000      -0.333607        -9.0779 
  63   0.0000      -0.325017        -8.8442 
  64   0.0000      -0.320901        -8.7322 
  65   0.0000      -0.318313        -8.6617 
  66   0.0000      -0.304771        -8.2932 
  67   0.0000      -0.297664        -8.0998 
  68   0.0000      -0.284169        -7.7326 
  69   0.0000      -0.273635        -7.4460 
  70   0.0000      -0.265773        -7.2320 
  71   0.0000      -0.263176        -7.1614 
  72   0.0000      -0.262210        -7.1351 
  73   0.0000      -0.257188        -6.9985 
  74   0.0000      -0.255217        -6.9448 
  75   0.0000      -0.244471        -6.6524 
  76   0.0000      -0.239990        -6.5305 
  77   0.0000      -0.237229        -6.4553 
  78   0.0000      -0.224813        -6.1175 
  79   0.0000      -0.222086        -6.0433 
  80   0.0000      -0.212398        -5.7796 
  81   0.0000      -0.208441        -5.6720 
  82   0.0000      -0.197652        -5.3784 
  83   0.0000      -0.191468        -5.2101 
  84   0.0000      -0.190382        -5.1806 
  85   0.0000      -0.176884        -4.8133 
  86   0.0000      -0.154887        -4.2147 
  87   0.0000      -0.151275        -4.1164 
  88   0.0000      -0.144611        -3.9351 
  89   0.0000      -0.141148        -3.8408 
  90   0.0000      -0.134592        -3.6624 
  91   0.0000      -0.127265        -3.4631 
  92   0.0000      -0.119157        -3.2424 
  93   0.0000      -0.118186        -3.2160 
  94   0.0000      -0.116050        -3.1579 
  95   0.0000      -0.107653        -2.9294 
  96   0.0000      -0.096842        -2.6352 
  97   0.0000      -0.089011        -2.4221 
  98   0.0000      -0.080646        -2.1945 
  99   0.0000      -0.075069        -2.0427 
 100   0.0000      -0.064849        -1.7646 
 101   0.0000      -0.052712        -1.4344 
 102   0.0000      -0.032537        -0.8854 
 103   0.0000      -0.026769        -0.7284 
 104   0.0000      -0.001806        -0.0491 
 105   0.0000       0.003739         0.1018 
 106   0.0000       0.008892         0.2420 
 107   0.0000       0.019529         0.5314 
 108   0.0000       0.021835         0.5942 
 109   0.0000       0.029328         0.7980 
 110   0.0000       0.036723         0.9993 
 111   0.0000       0.043894         1.1944 
 112   0.0000       0.059140         1.6093 
 113   0.0000       0.060742         1.6529 
 114   0.0000       0.063280         1.7219 
 115   0.0000       0.064211         1.7473 
 116   0.0000       0.067125         1.8266 
 117   0.0000       0.071981         1.9587 
 118   0.0000       0.077170         2.0999 
 119   0.0000       0.082604         2.2478 
 120   0.0000       0.086453         2.3525 
 121   0.0000       0.091232         2.4825 
 122   0.0000       0.095938         2.6106 
 123   0.0000       0.097220         2.6455 
 124   0.0000       0.103233         2.8091 
 125   0.0000       0.114470         3.1149 
 126   0.0000       0.115055         3.1308 
 127   0.0000       0.132243         3.5985 
 128   0.0000       0.141263         3.8440 
 129   0.0000       0.148159         4.0316 
 130   0.0000       0.160633         4.3710 
 131   0.0000       0.164023         4.4633 
 132   0.0000       0.170937         4.6514 
 133   0.0000       0.193673         5.2701 
 134   0.0000       0.209647         5.7048 
 135   0.0000       0.217552         5.9199 
 136   0.0000       0.250227         6.8090 
 137   0.0000       0.268001         7.2927 
 138   0.0000       0.299996         8.1633 
 139   0.0000       0.310803         8.4574 
 140   0.0000       0.328044         8.9265 
 141   0.0000       0.341222         9.2851 
 142   0.0000       0.346117         9.4183 
 143   0.0000       0.363109         9.8807 
 144   0.0000       0.365673         9.9505 
 145   0.0000       0.381772        10.3885 
 146   0.0000       0.392968        10.6932 
 147   0.0000       0.399590        10.8734 
 148   0.0000       0.410606        11.1732 
 149   0.0000       0.423050        11.5118 
 150   0.0000       0.435738        11.8570 
 151   0.0000       0.436364        11.8741 
 152   0.0000       0.464720        12.6457 
 153   0.0000       0.472167        12.8483 
 154   0.0000       0.512476        13.9452 
 155   0.0000       0.533681        14.5222 
 156   0.0000       0.542403        14.7595 
 157   0.0000       0.550120        14.9695 
 158   0.0000       0.562200        15.2982 
 159   0.0000       0.571982        15.5644 
 160   0.0000       0.586346        15.9553 
 161   0.0000       0.594203        16.1691 
 162   0.0000       0.600071        16.3288 
 163   0.0000       0.602301        16.3894 
 164   0.0000       0.604913        16.4605 
 165   0.0000       0.614593        16.7239 
 166   0.0000       0.622952        16.9514 
 167   0.0000       0.646686        17.5972 
 168   0.0000       0.658554        17.9202 
 169   0.0000       0.687383        18.7047 
 170   0.0000       0.698578        19.0093 
 171   0.0000       0.700846        19.0710 
 172   0.0000       0.714954        19.4549 
 173   0.0000       0.719696        19.5839 
 174   0.0000       0.721500        19.6330 
 175   0.0000       0.752456        20.4754 
 176   0.0000       0.807386        21.9701 
 177   0.0000       0.820970        22.3397 
 178   0.0000       0.849320        23.1112 
 179   0.0000       0.882441        24.0124 
 180   0.0000       0.907704        24.6999 
 181   0.0000       0.941309        25.6143 
 182   0.0000       0.965849        26.2821 
 183   0.0000       0.998854        27.1802 
 184   0.0000       1.013069        27.5670 
 185   0.0000       1.031317        28.0636 
 186   0.0000       1.046179        28.4680 
 187   0.0000       1.048957        28.5436 
 188   0.0000       1.053666        28.6717 
 189   0.0000       1.068974        29.0883 
 190   0.0000       1.073126        29.2012 
 191   0.0000       1.078831        29.3565 
 192   0.0000       1.083628        29.4870 
 193   0.0000       1.088931        29.6313 
 194   0.0000       1.092929        29.7401 
 195   0.0000       1.098363        29.8880 
 196   0.0000       1.108616        30.1670 
 197   0.0000       1.113507        30.3001 
 198   0.0000       1.121644        30.5215 
 199   0.0000       1.129263        30.7288 
 200   0.0000       1.135943        30.9106 
 201   0.0000       1.137191        30.9445 
 202   0.0000       1.151331        31.3293 
 203   0.0000       1.152931        31.3729 
 204   0.0000       1.160820        31.5875 
 205   0.0000       1.173191        31.9242 
 206   0.0000       1.186671        32.2910 
 207   0.0000       1.193154        32.4674 
 208   0.0000       1.202978        32.7347 
 209   0.0000       1.242475        33.8095 
 210   0.0000       1.253865        34.1194 
 211   0.0000       1.264703        34.4143 
 212   0.0000       1.268564        34.5194 
 213   0.0000       1.274837        34.6901 
 214   0.0000       1.279376        34.8136 
 215   0.0000       1.290990        35.1296 
 216   0.0000       1.312498        35.7149 
 217   0.0000       1.313711        35.7479 
 218   0.0000       1.316138        35.8139 
 219   0.0000       1.389289        37.8045 
 220   0.0000       1.407079        38.2886 
 221   0.0000       1.428013        38.8582 
 222   0.0000       1.432902        38.9913 
 223   0.0000       1.439474        39.1701 
 224   0.0000       1.448483        39.4152 
 225   0.0000       1.458807        39.6962 
 226   0.0000       1.461008        39.7560 
 227   0.0000       1.469015        39.9739 
 228   0.0000       1.489932        40.5431 
 229   0.0000       1.511070        41.1183 
 230   0.0000       1.520216        41.3672 
 231   0.0000       1.535063        41.7712 
 232   0.0000       1.538355        41.8608 
 233   0.0000       1.569888        42.7188 
 234   0.0000       1.608496        43.7694 
 235   0.0000       1.615306        43.9547 
 236   0.0000       1.621761        44.1304 
 237   0.0000       1.629652        44.3451 
 238   0.0000       1.663094        45.2551 
 239   0.0000       1.710474        46.5444 
 240   0.0000       1.728629        47.0384 
 241   0.0000       1.756870        47.8069 
 242   0.0000       1.768299        48.1179 
 243   0.0000       1.775676        48.3186 
 244   0.0000       1.791623        48.7525 
 245   0.0000       1.796247        48.8784 
 246   0.0000       1.812813        49.3292 
 247   0.0000       1.814095        49.3640 
 248   0.0000       1.820160        49.5291 
 249   0.0000       1.871936        50.9380 
 250   0.0000       1.880045        51.1586 
 251   0.0000       1.882430        51.2235 
 252   0.0000       1.886267        51.3279 
 253   0.0000       1.889985        51.4291 
 254   0.0000       1.897327        51.6289 
 255   0.0000       1.902699        51.7751 
 256   0.0000       1.911926        52.0262 
 257   0.0000       1.921468        52.2858 
 258   0.0000       1.937299        52.7166 
 259   0.0000       1.939829        52.7854 
 260   0.0000       1.946003        52.9534 
 261   0.0000       1.953308        53.1522 
 262   0.0000       1.961395        53.3723 
 263   0.0000       1.966815        53.5198 
 264   0.0000       2.040268        55.5185 
 265   0.0000       2.046817        55.6967 
 266   0.0000       2.079464        56.5851 
 267   0.0000       2.086359        56.7727 
 268   0.0000       2.087689        56.8089 
 269   0.0000       2.092688        56.9449 
 270   0.0000       2.099535        57.1313 
 271   0.0000       2.105052        57.2814 
 272   0.0000       2.111750        57.4636 
 273   0.0000       2.116408        57.5904 
 274   0.0000       2.121241        57.7219 
 275   0.0000       2.121641        57.7328 
 276   0.0000       2.122323        57.7513 
 277   0.0000       2.124906        57.8216 
 278   0.0000       2.133452        58.0542 
 279   0.0000       2.182875        59.3990 
 280   0.0000       2.195261        59.7361 
 281   0.0000       2.218676        60.3732 
 282   0.0000       2.242715        61.0274 
 283   0.0000       2.249945        61.2241 
 284   0.0000       2.252543        61.2948 
 285   0.0000       2.257126        61.4195 
 286   0.0000       2.262682        61.5707 
 287   0.0000       2.272710        61.8436 
 288   0.0000       2.283507        62.1374 
 289   0.0000       2.305342        62.7315 
 290   0.0000       2.331653        63.4475 
 291   0.0000       2.392823        65.1120 
 292   0.0000       2.401932        65.3599 
 293   0.0000       2.407583        65.5137 
 294   0.0000       2.417573        65.7855 
 295   0.0000       2.432158        66.1824 
 296   0.0000       2.443901        66.5019 
 297   0.0000       2.508961        68.2723 
 298   0.0000       2.538476        69.0754 
 299   0.0000       2.553657        69.4885 
 300   0.0000       2.563778        69.7640 
 301   0.0000       2.569360        69.9158 
 302   0.0000       2.572029        69.9885 
 303   0.0000       2.576221        70.1026 
 304   0.0000       2.583422        70.2985 
 305   0.0000       2.590164        70.4819 
 306   0.0000       2.594283        70.5940 
 307   0.0000       2.604034        70.8594 
 308   0.0000       2.616705        71.2042 
 309   0.0000       2.624428        71.4143 
 310   0.0000       2.631757        71.6137 
 311   0.0000       2.641863        71.8887 
 312   0.0000       2.660080        72.3845 
 313   0.0000       2.668545        72.6148 
 314   0.0000       2.671133        72.6852 
 315   0.0000       2.685343        73.0719 
 316   0.0000       2.696120        73.3652 
 317   0.0000       2.706105        73.6369 
 318   0.0000       2.783865        75.7528 
 319   0.0000       2.786406        75.8220 
 320   0.0000       2.793506        76.0152 
 321   0.0000       2.824153        76.8491 
 322   0.0000       2.828813        76.9759 
 323   0.0000       2.831682        77.0540 
 324   0.0000       2.876058        78.2615 
 325   0.0000       2.879235        78.3480 
 326   0.0000       2.896491        78.8175 
 327   0.0000       2.919631        79.4472 
 328   0.0000       2.921903        79.5090 
 329   0.0000       2.937889        79.9440 
 330   0.0000       2.943220        80.0891 
 331   0.0000       2.946715        80.1842 
 332   0.0000       2.987582        81.2962 
 333   0.0000       2.989794        81.3564 
 334   0.0000       2.993981        81.4704 
 335   0.0000       3.009663        81.8971 
 336   0.0000       3.033498        82.5457 
 337   0.0000       3.048365        82.9502 
 338   0.0000       3.133612        85.2699 
 339   0.0000       3.172477        86.3275 
 340   0.0000       3.189090        86.7796 
 341   0.0000       3.210866        87.3721 
 342   0.0000       3.216323        87.5206 
 343   0.0000       3.219464        87.6061 
 344   0.0000       3.219501        87.6071 
 345   0.0000       3.231440        87.9319 
 346   0.0000       3.253237        88.5251 
 347   0.0000       3.295011        89.6618 
 348   0.0000       3.311071        90.0988 
 349   0.0000       3.325619        90.4947 
 350   0.0000       3.416942        92.9797 
 351   0.0000       3.420527        93.0773 
 352   0.0000       3.425863        93.2225 
 353   0.0000       3.440717        93.6267 
 354   0.0000       3.447987        93.8245 
 355   0.0000       3.456296        94.0506 
 356   0.0000       3.475527        94.5739 
 357   0.0000       3.477434        94.6258 
 358   0.0000       3.481581        94.7386 
 359   0.0000       3.501858        95.2904 
 360   0.0000       3.506199        95.4085 
 361   0.0000       3.518553        95.7447 
 362   0.0000       3.527671        95.9928 
 363   0.0000       3.616769        98.4173 
 364   0.0000       3.625185        98.6463 
 365   0.0000       3.692401       100.4754 
 366   0.0000       3.706882       100.8694 
 367   0.0000       3.721475       101.2665 
 368   0.0000       3.731728       101.5455 
 369   0.0000       3.755962       102.2049 
 370   0.0000       3.759144       102.2915 
 371   0.0000       3.767907       102.5300 
 372   0.0000       3.879094       105.5555 
 373   0.0000       3.890026       105.8530 
 374   0.0000       3.897264       106.0499 
 375   0.0000       3.910761       106.4172 
 376   0.0000       3.912893       106.4752 
 377   0.0000       3.915021       106.5331 
 378   0.0000       3.931857       106.9913 
 379   0.0000       3.934270       107.0569 
 380   0.0000       3.938538       107.1731 
 381   0.0000       4.048859       110.1751 
 382   0.0000       4.055553       110.3572 
 383   0.0000       4.064074       110.5891 
 384   0.0000       4.239248       115.3558 
 385   0.0000       4.244038       115.4861 
 386   0.0000       4.256734       115.8316 
 387   0.0000       4.535410       123.4148 
 388   0.0000       4.563552       124.1806 
 389   0.0000       4.568310       124.3100 
 390   0.0000       4.757543       129.4593 
 391   0.0000       4.759128       129.5025 
 392   0.0000       4.765206       129.6678 
 393   0.0000       4.785480       130.2195 
 394   0.0000       4.791591       130.3858 
 395   0.0000       4.793021       130.4247 
 396   0.0000       4.810977       130.9133 
 397   0.0000       4.819887       131.1558 
 398   0.0000       4.845290       131.8470 
 399   0.0000       4.864595       132.3724 
 400   0.0000       4.887164       132.9865 
 401   0.0000       4.908368       133.5635 
 402   0.0000       5.022504       136.6693 
 403   0.0000       5.102760       138.8532 
 404   0.0000       5.104009       138.8872 
 405   0.0000       5.507655       149.8709 
 406   0.0000       5.521230       150.2403 
 407   0.0000       5.533131       150.5642 
 408   0.0000       5.754466       156.5870 
 409   0.0000       5.780966       157.3081 
 410   0.0000       5.796795       157.7388 
 411   0.0000       5.927567       161.2973 
 412   0.0000       5.935893       161.5238 
 413   0.0000       5.959845       162.1756 
 414   0.0000       6.208750       168.9487 
 415   0.0000       6.219707       169.2468 
 416   0.0000       6.232926       169.6066 
 417   0.0000       6.247719       170.0091 
 418   0.0000       6.267937       170.5592 
 419   0.0000       6.297494       171.3635 
 420   0.0000       6.545509       178.1124 
 421   0.0000       6.550671       178.2528 
 422   0.0000       6.583849       179.1557 
 423   0.0000      21.477729       584.4387 
 424   0.0000      21.488464       584.7308 
 425   0.0000      21.516989       585.5070 
 426   0.0000      21.699331       590.4688 
 427   0.0000      21.703668       590.5868 
 428   0.0000      21.705355       590.6327 
 429   0.0000      42.746635      1163.1951 
 430   0.0000      42.793177      1164.4615 
 431   0.0000      42.814825      1165.0506 

                    ********************************
                    * MULLIKEN POPULATION ANALYSIS *
                    ********************************

--------------------------------------------
MULLIKEN ATOMIC CHARGES AND SPIN POPULATIONS
--------------------------------------------
   0 Fe:    1.187481    4.018216
   1 O :   -0.421158    0.227136
   2 O :   -0.424459    0.239565
   3 O :   -0.420843    0.221057
   4 H :    0.404446    0.004998
   5 C :   -0.069854    0.017545
   6 H :    0.403532    0.005318
   7 C :   -0.065953    0.017328
   8 H :    0.400956    0.004328
   9 C :   -0.062555    0.016729
  10 H :    0.217753    0.016173
  11 H :    0.200661    0.009706
  12 C :   -0.385145    0.027195
  13 H :    0.203695    0.003230
[...]
      py      :     0.805778
      dz2     :     0.046844  d :     0.420765
      dxz     :     0.080503
      dyz     :     0.104782
      dx2y2   :     0.112390
      dxy     :     0.076247
      f0      :     0.004815  f :     0.045930
      f+1     :     0.002515
      f-1     :     0.006181
      f+2     :     0.005779
      f-2     :     0.009417
      f+3     :     0.010259
      f-3     :     0.006964
  8 H s       :     0.610342  s :     0.610342
      pz      :     0.055179  p :     0.150517
      px      :     0.039313
      py      :     0.056025
  9 C s       :     2.870335  s :     2.870335
      pz      :     0.993293  p :     2.806086
      px      :     1.127285
      py      :     0.685508
      dz2     :     0.039389  d :     0.414045
      dxz     :     0.107196
      dyz     :     0.083563
      dx2y2   :     0.101943
      dxy     :     0.081955
      f0      :     0.004431  f :     0.044060
      f+1     :     0.004095
      f-1     :     0.005115
      f+2     :     0.008728
      f-2     :     0.004093
      f+3     :     0.007112
      f-3     :     0.010486
 10 H s       :     0.770931  s :     0.770931
      pz      :     0.036843  p :     0.063721
      px      :     0.014323
      py      :     0.012555
 11 H s       :     0.777164  s :     0.777164
      pz      :     0.021469  p :     0.063055
      px      :     0.029886
      py      :     0.011700
 12 C s       :     2.835470  s :     2.835470
      pz      :     1.079758  p :     3.166627
      px      :     1.058241
      py      :     1.028627
      dz2     :     0.030097  d :     0.229572
      dxz     :     0.055777
      dyz     :     0.040843
      dx2y2   :     0.038965
      dxy     :     0.063890
      f0      :     0.003753  f :     0.024595
      f+1     :     0.001988
      f-1     :     0.002841
      f+2     :     0.001780
      f-2     :     0.005143
      f+3     :     0.004525
      f-3     :     0.004564
 13 H s       :     0.773399  s :     0.773399
      pz      :     0.021976  p :     0.064153
      px      :     0.028265
      py      :     0.013913
 14 H s       :     0.726391  s :     0.726391
      pz      :     0.019300  p :     0.063829
      px      :     0.016813
      py      :     0.027716
 15 H s       :     0.774955  s :     0.774955
      pz      :     0.033768  p :     0.064558
      px      :     0.014358
      py      :     0.016432
 16 H s       :     0.778818  s :     0.778818
      pz      :     0.025021  p :     0.062935
      px      :     0.019206
      py      :     0.018708
 17 C s       :     2.835463  s :     2.835463
      pz      :     1.075965  p :     3.163609
      px      :     1.034756
      py      :     1.052888
      dz2     :     0.025327  d :     0.229852
      dxz     :     0.078935
      dyz     :     0.027251
      dx2y2   :     0.057515
      dxy     :     0.040825
      f0      :     0.003401  f :     0.024567
      f+1     :     0.004444
      f-1     :     0.001485
      f+2     :     0.004133
      f-2     :     0.002323
      f+3     :     0.004261
      f-3     :     0.004520
 18 H s       :     0.767098  s :     0.767098
      pz      :     0.034453  p :     0.064137
      px      :     0.021617
      py      :     0.008066
 19 H s       :     0.775029  s :     0.775029
      pz      :     0.031211  p :     0.064547
      px      :     0.019477
      py      :     0.013859
 20 H s       :     0.772593  s :     0.772593
      pz      :     0.025017  p :     0.064164
      px      :     0.017378
      py      :     0.021769
 21 H s       :     0.722096  s :     0.722096
      pz      :     0.018214  p :     0.063635
      px      :     0.011757
      py      :     0.033664
 22 H s       :     0.767639  s :     0.767639
      pz      :     0.014487  p :     0.063920
      px      :     0.016786
      py      :     0.032647
 23 H s       :     0.781360  s :     0.781360
      pz      :     0.032957  p :     0.062550
      px      :     0.015465
      py      :     0.014128
 24 C s       :     2.835624  s :     2.835624
      pz      :     1.071781  p :     3.165086
      px      :     1.043560
      py      :     1.049744
      dz2     :     0.031843  d :     0.230098
      dxz     :     0.044777
      dyz     :     0.040312
      dx2y2   :     0.048071
      dxy     :     0.065094
      f0      :     0.002966  f :     0.024616
      f+1     :     0.002836
      f-1     :     0.002604
      f+2     :     0.002294
      f-2     :     0.004080
      f+3     :     0.005116
      f-3     :     0.004719
 25 H s       :     0.774565  s :     0.774565
      pz      :     0.031730  p :     0.064030
      px      :     0.019311
      py      :     0.012990
 26 H s       :     0.728865  s :     0.728865
      pz      :     0.023966  p :     0.063882
      px      :     0.026441
      py      :     0.013475
 27 H s       :     0.777320  s :     0.777320
      pz      :     0.017199  p :     0.064457
      px      :     0.017551
      py      :     0.029706

SPIN
  0 Fes       :     0.061275  s :     0.061275
      pz      :     0.016779  p :     0.067785
      px      :     0.030020
      py      :     0.020986
      dz2     :     0.713807  d :     3.813828
      dxz     :     0.753259
      dyz     :     0.841295
      dx2y2   :     0.768109
      dxy     :     0.737358
      f0      :     0.000030  f :     0.000089
      f+1     :     0.000017
      f-1     :     0.000011
      f+2     :     0.000009
      f-2     :     0.000003
      f+3     :     0.000009
      f-3     :     0.000010
  1 O s       :     0.010366  s :     0.010366
      pz      :     0.116445  p :     0.220723
      px      :     0.016213
      py      :     0.088064
      dz2     :     0.000552  d :     0.007841
      dxz     :     0.001393
      dyz     :     0.001648
      dx2y2   :     0.001946
      dxy     :     0.002301
      f0      :     0.000019  f :     0.000530
      f+1     :     0.000001
      f-1     :     0.000119
      f+2     :     0.000069
      f-2     :     0.000098
      f+3     :     0.000149
      f-3     :     0.000076
  2 O s       :     0.011018  s :     0.011018
      pz      :     0.113656  p :     0.233431
      px      :     0.064988
      py      :     0.054787
      dz2     :     0.000385  d :     0.008080
      dxz     :     0.002528
      dyz     :     0.001672
      dx2y2   :     0.003069
      dxy     :     0.000426
      f0      :     0.000020  f :     0.000532
      f+1     :     0.000072
      f-1     :     0.000080
      f+2     :     0.000049
      f-2     :     0.000147
      f+3     :     0.000065
      f-3     :     0.000100
  3 O s       :     0.009828  s :     0.009828
      pz      :     0.055578  p :     0.213474
      px      :     0.063153
      py      :     0.094743
      dz2     :     0.000392  d :     0.007522
      dxz     :     0.002792
      dyz     :     0.000357
      dx2y2   :     0.001878
      dxy     :     0.002103
      f0      :     0.000026  f :     0.000526
      f+1     :     0.000138
      f-1     :     0.000012
      f+2     :     0.000054
      f-2     :     0.000050
      f+3     :     0.000107
      f-3     :     0.000139
  4 H s       :     0.005044  s :     0.005044
      pz      :     0.003175  p :     0.005479
      px      :     0.000509
      py      :     0.001794
  5 C s       :    -0.000192  s :    -0.000192
      pz      :     0.003829  p :     0.022401
      px      :     0.011311
      py      :     0.007261
      dz2     :     0.003457  d :     0.009394
      dxz     :     0.000799
      dyz     :     0.000238
      dx2y2   :     0.000439
      dxy     :     0.004461
      f0      :     0.000117  f :     0.001715
      f+1     :     0.000420
      f-1     :     0.000122
      f+2     :     0.000106
      f-2     :     0.000616
      f+3     :     0.000138
      f-3     :     0.000195
  6 H s       :     0.005219  s :     0.005219
      pz      :     0.002926  p :     0.005784
      px      :     0.001333
      py      :     0.001524
  7 C s       :    -0.000245  s :    -0.000245
      pz      :     0.010928  p :     0.021739
      px      :    -0.000914
      py      :     0.011725
      dz2     :     0.003319  d :     0.009765
      dxz     :     0.004060
      dyz     :     0.000310
      dx2y2   :     0.000462
      dxy     :     0.001613
      f0      :     0.000035  f :     0.001643
      f+1     :     0.000125
      f-1     :     0.000617
      f+2     :     0.000078
      f-2     :     0.000193
      f+3     :     0.000173
      f-3     :     0.000421
  8 H s       :     0.004495  s :     0.004495
      pz      :     0.001791  p :     0.005321
      px      :     0.001113
      py      :     0.002418
  9 C s       :    -0.000256  s :    -0.000256
      pz      :     0.010801  p :     0.021088
      px      :     0.004004
      py      :     0.006283
      dz2     :     0.001617  d :     0.009378
      dxz     :     0.003237
      dyz     :     0.002365
      dx2y2   :     0.002028
      dxy     :     0.000131
      f0      :     0.000048  f :     0.001633
      f+1     :     0.000097
      f-1     :     0.000534
      f+2     :     0.000135
      f-2     :     0.000097
      f+3     :     0.000541
      f-3     :     0.000180
 10 H s       :     0.011648  s :     0.011648
      pz      :    -0.000002  p :     0.000179
      px      :     0.000001
      py      :     0.000179
 11 H s       :     0.006984  s :     0.006984
      pz      :    -0.000055  p :     0.000218
      px      :     0.000142
      py      :     0.000131
 12 C s       :     0.000367  s :     0.000367
      pz      :     0.004161  p :     0.024882
      px      :    -0.000217
      py      :     0.020938
      dz2     :     0.000185  d :     0.004163
      dxz     :     0.001254
      dyz     :     0.000962
      dx2y2   :     0.001317
      dxy     :     0.000446
      f0      :     0.000049  f :     0.000372
      f+1     :     0.000029
      f-1     :    -0.000005
      f+2     :     0.000014
      f-2     :     0.000113
      f+3     :     0.000064
      f-3     :     0.000107
 13 H s       :     0.002517  s :     0.002517
      pz      :     0.000130  p :     0.000397
      px      :     0.000078
      py      :     0.000188
 14 H s       :     0.012555  s :     0.012555
      pz      :     0.000119  p :     0.000195
      px      :     0.000159
      py      :    -0.000083
 15 H s       :     0.002169  s :     0.002169
      pz      :     0.000040  p :     0.000345
      px      :    -0.000002
      py      :     0.000307
 16 H s       :     0.005521  s :     0.005521
      pz      :    -0.000052  p :     0.000229
      px      :     0.000179
      py      :     0.000102
 17 C s       :     0.000410  s :     0.000410
      pz      :     0.004452  p :     0.027115
      px      :     0.002099
      py      :     0.020564
      dz2     :     0.000050  d :     0.004383
      dxz     :     0.001294
      dyz     :     0.001230
      dx2y2   :     0.001458
      dxy     :     0.000350
      f0      :     0.000051  f :     0.000400
      f+1     :     0.000050
      f-1     :    -0.000005
      f+2     :     0.000090
      f-2     :     0.000009
      f+3     :     0.000125
      f-3     :     0.000080
 18 H s       :     0.011419  s :     0.011419
      pz      :     0.000003  p :     0.000189
      px      :     0.000062
      py      :     0.000124
 19 H s       :     0.002086  s :     0.002086
      pz      :     0.000036  p :     0.000380
      px      :     0.000060
      py      :     0.000284
 20 H s       :     0.002277  s :     0.002277
      pz      :     0.000192  p :     0.000446
      px      :     0.000166
      py      :     0.000087
 21 H s       :     0.014474  s :     0.014474
      pz      :     0.000090  p :     0.000211
      px      :     0.000087
      py      :     0.000035
 22 H s       :     0.012713  s :     0.012713
      pz      :     0.000052  p :     0.000165
      px      :     0.000114
      py      :    -0.000001
 23 H s       :     0.005151  s :     0.005151
      pz      :     0.000085  p :     0.000271
      px      :     0.000006
      py      :     0.000179
 24 C s       :     0.000459  s :     0.000459
      pz      :     0.011015  p :     0.026318
      px      :     0.013413
      py      :     0.001891
      dz2     :     0.000242  d :     0.003956
      dxz     :     0.001751
      dyz     :     0.000269
      dx2y2   :     0.001045
      dxy     :     0.000648
      f0      :     0.000017  f :     0.000351
      f+1     :     0.000017
      f-1     :     0.000036
      f+2     :     0.000060
      f-2     :     0.000067
      f+3     :     0.000034
      f-3     :     0.000120
 25 H s       :     0.002001  s :     0.002001
      pz      :     0.000012  p :     0.000437
      px      :     0.000358
      py      :     0.000067
 26 H s       :     0.012501  s :     0.012501
      pz      :     0.000048  p :     0.000218
      px      :    -0.000017
      py      :     0.000187
 27 H s       :     0.002320  s :     0.002320
      pz      :     0.000135  p :     0.000358
      px      :     0.000178
      py      :     0.000045


                      *****************************
                      * MAYER POPULATION ANALYSIS *
                      *****************************

  NA   - Mulliken gross atomic population
  ZA   - Total nuclear charge
  QA   - Mulliken gross atomic charge
  VA   - Mayer's total valence
  BVA  - Mayer's bonded valence
  FA   - Mayer's free valence

  ATOM       NA         ZA         QA         VA         BVA        FA
  0 Fe    24.8125    26.0000     1.1875     6.0177     2.8218     3.1958
  1 O      8.4212     8.0000    -0.4212     2.2746     2.2448     0.0298
  2 O      8.4245     8.0000    -0.4245     2.2773     2.2444     0.0330
  3 O      8.4208     8.0000    -0.4208     2.2787     2.2504     0.0283
  4 H      0.5956     1.0000     0.4044     0.8557     0.8557     0.0000
  5 C      6.0699     6.0000    -0.0699     3.6793     3.6789     0.0004
  6 H      0.5965     1.0000     0.4035     0.8565     0.8565     0.0000
  7 C      6.0660     6.0000    -0.0660     3.6727     3.6724     0.0004
  8 H      0.5990     1.0000     0.4010     0.8596     0.8596     0.0000
  9 C      6.0626     6.0000    -0.0626     3.6583     3.6580     0.0004
 10 H      0.7822     1.0000     0.2178     0.9362     0.9360     0.0003
 11 H      0.7993     1.0000     0.2007     0.9459     0.9458     0.0001
 12 C      6.3851     6.0000    -0.3851     3.9071     3.9065     0.0007
 13 H      0.7963     1.0000     0.2037     0.9527     0.9527     0.0000
 14 H      0.7577     1.0000     0.2423     0.9521     0.9518     0.0003
 15 H      0.7936     1.0000     0.2064     0.9527     0.9527     0.0000
 16 H      0.8031     1.0000     0.1969     0.9492     0.9492     0.0001
 17 C      6.3787     6.0000    -0.3787     3.9059     3.9051     0.0008
 18 H      0.7703     1.0000     0.2297     0.9323     0.9320     0.0002
 19 H      0.7964     1.0000     0.2036     0.9536     0.9536     0.0000
 20 H      0.7951     1.0000     0.2049     0.9535     0.9535     0.0000
 21 H      0.7541     1.0000     0.2459     0.9495     0.9492     0.0004
 22 H      0.7734     1.0000     0.2266     0.9338     0.9335     0.0003
 23 H      0.8126     1.0000     0.1874     0.9514     0.9514     0.0000
 24 C      6.3733     6.0000    -0.3733     3.9030     3.9022     0.0008
 25 H      0.7988     1.0000     0.2012     0.9549     0.9549     0.0000
 26 H      0.7596     1.0000     0.2404     0.9528     0.9526     0.0003
 27 H      0.8019     1.0000     0.1981     0.9552     0.9552     0.0000

  Mayer bond orders larger than 0.100000
B(  0-Fe,  1-O ) :   0.7633 B(  0-Fe,  2-O ) :   0.7869 B(  0-Fe,  3-O ) :   0.7465 
B(  1-O ,  4-H ) :   0.8088 B(  1-O ,  7-C ) :   0.6129 B(  2-O ,  6-H ) :   0.8111 
B(  2-O ,  9-C ) :   0.5894 B(  3-O ,  5-C ) :   0.6264 B(  3-O ,  8-H ) :   0.8119 
B(  5-C , 22-H ) :   0.9010 B(  5-C , 23-H ) :   0.9278 B(  5-C , 24-C ) :   1.0892 
B(  7-C , 10-H ) :   0.9050 B(  7-C , 11-H ) :   0.9221 B(  7-C , 12-C ) :   1.0988 
B(  9-C , 16-H ) :   0.9249 B(  9-C , 17-C ) :   1.1062 B(  9-C , 18-H ) :   0.9006 
B( 12-C , 13-H ) :   0.9218 B( 12-C , 14-H ) :   0.8567 B( 12-C , 15-H ) :   0.9332 
B( 17-C , 19-H ) :   0.9317 B( 17-C , 20-H ) :   0.9220 B( 17-C , 21-H ) :   0.8486 
B( 24-C , 25-H ) :   0.9251 B( 24-C , 26-H ) :   0.8615 B( 24-C , 27-H ) :   0.9328 


-------
TIMINGS
-------

Total SCF time: 0 days 0 hours 0 min 17 sec 

Total time                  ....      17.441 sec
Sum of individual times     ....      15.736 sec  ( 90.2%)

Fock matrix formation       ....       8.965 sec  ( 51.4%)
  Split-RI-J                ....       3.181 sec  ( 35.5% of F)
  XC integration            ....       4.829 sec  ( 53.9% of F)
    Basis function eval.    ....       0.347 sec  (  7.2% of XC)
    Density eval.           ....       0.788 sec  ( 16.3% of XC)
    XC-Functional eval.     ....       0.085 sec  (  1.8% of XC)
    XC-Potential eval.      ....       0.826 sec  ( 17.1% of XC)
Diagonalization             ....       2.525 sec  ( 14.5%)
Density matrix formation    ....       0.185 sec  (  1.1%)
Population analysis         ....       0.143 sec  (  0.8%)
Initial guess               ....       0.203 sec  (  1.2%)
Orbital Transformation      ....       0.711 sec  (  4.1%)
Orbital Orthonormalization  ....       0.000 sec  (  0.0%)
DIIS solution               ....       1.411 sec  (  8.1%)
Grid generation             ....       1.535 sec  (  8.8%)

Maximum memory used throughout the entire SCF-calculation: 58.4 MB

-------------------------   --------------------
FINAL SINGLE POINT ENERGY     -1727.065653780824
-------------------------   --------------------


                            ***************************************
                            *     ORCA property calculations      *
                            ***************************************

                                    ---------------------
                                    Active property flags
                                    ---------------------
   (+) Dipole Moment


------------------------------------------------------------------------------
                       ORCA ELECTRIC PROPERTIES CALCULATION
------------------------------------------------------------------------------

Dipole Moment Calculation                       ... on
Quadrupole Moment Calculation                   ... off
Polarizability Calculation                      ... off
GBWName                                         ... Fe_EtOH_3_HighSpin.gbw
Electron density                                ... Fe_EtOH_3_HighSpin.scfp
The origin for moment calculation is the CENTER OF MASS  = ( 1.191276, -1.150363 -0.586594)

-------------
DIPOLE MOMENT
-------------
                                X             Y             Z
Electronic contribution:     -1.80731       0.51909       2.60251
Nuclear contribution   :      1.67306      -0.57656      -2.48837
                        -----------------------------------------
Total Dipole Moment    :     -0.13424      -0.05747       0.11414
                        -----------------------------------------
Magnitude (a.u.)       :      0.18535
Magnitude (Debye)      :      0.47111



--------------------
Rotational spectrum 
--------------------
 
Rotational constants in cm-1:     0.026147     0.019114     0.011309 
Rotational constants in MHz :   783.866561   573.011123   339.024038 

 Dipole components along the rotational axes: 
x,y,z [a.u.] :    -0.156672    -0.096925     0.020320 
x,y,z [Debye]:    -0.398229    -0.246363     0.051649 

 

Timings for individual modules:

Sum of individual times         ...       42.519 sec (=   0.709 min)
GTO integral calculation        ...       15.352 sec (=   0.256 min)  36.1 %
SCF iterations                  ...       27.167 sec (=   0.453 min)  63.9 %
                             ****ORCA TERMINATED NORMALLY****
TOTAL RUN TIME: 0 days 0 hours 0 minutes 55 seconds 813 msec
