==================================================================================
It's Thu 16 May 2024 10:06:12 PM BST.
*** Starting onetep_launcher (node nid005208, PIDs 98144 98145 98146 98147 98148 98149 98150 98151 98152 98153 98154 98155 98156 98157 98158 98159)...
    - ONETEP arguments: hBN_66_C_B_nspF.dat
    - Current directory: /mnt/lustre/a2fs-work3/work/e89/e89/ndmh3/hBN_def/hBN_66_C_B_nspF
    - Launcher executable directory: /mnt/lustre/a2fs-work3/work/e89/e89/ndmh3/onetep/utils
    - (-e) ONETEP executable specified through command-line: /work/e89/e89/ndmh3/onetep/bin/onetep.archer2_2023_cray
      ... trying /work/e89/e89/ndmh3/onetep/bin/onetep.archer2_2023_cray
          -> looks OK
*** Setting up environment...
    - (-s) Process stack size: unlimited
    - (-t) OMP_NUM_THREADS: 8
    - (-o) OMP_STACKSIZE: 64M
    - (-c) Maximum core file size: 2048000
    - (-d) decfort_dump_flag: n
    - (-m) I_MPI_OFA_TRANSLATION_CACHE: 0
    - (-m) I_MPI_DAPL_TRANSLATION_CACHE: 0
    - (-m) I_MPI_DAPL_UD_TRANSLATION_CACHE: 0
*** Starting ONETEP...
    - /work/e89/e89/ndmh3/onetep/bin/onetep.archer2_2023_cray hBN_66_C_B_nspF.dat
=================================================================================
_________________________________________________________________________________
 +---------------------------------------------------------------+
 |                                                               |
 |        ####### #     # ####### ####### ####### ######         |
 |        #     # ##    # #          #    #       #     #        |
 |        #     # # #   # #          #    #       #     #        |
 |        #     # #  #  # #####      #    #####   ######         |
 |        #     # #   # # #          #    #       #              |
 |        #     # #    ## #          #    #       #              |
 |        ####### #     # #######    #    ####### #              |
 |                                                               |
 |        Linear-Scaling Ab Initio Total Energy Program          |
 |                                                               |
 |          Release for academic collaborators of ODG            |
 |                                             Version 7.1.29    |
 | Remote: git@github.com:onetep-devel/onetep.git                |
 | Local branch: master                                          |
 | Commit ID: 91e6f3e6b89d8869bed7d0d1b91ca8f87d72fd1f           |
 | Date: Tue May 14 12:35:29 2024 +0200                          |
 | Working tree clean                                            |
 |                                                               |
 +---------------------------------------------------------------+
 |                                                               |
 |  Authors:                                                     |
 |  Jacek Dziedzic, Peter D. Haynes, Nicholas D. M. Hine,        |
 |  Arash A. Mostofi, Mike C. Payne and Chris-Kriton Skylaris    |
 |                                                               |
 |  Contributors:                                                |
 |  J. Aarons, L. Andrinopoulos, P. W. Avraam, R. A. Bell,       |
 |  A. Bhandari, G. A. Bramley, R. J. Charlton, S. J. Clark,     |
 |  R. J. Clements, G. C. Constantinescu, F. Corsetti,           |
 |  N. Corsini, O. Dieguez, S. M. M. Dubois, K. K. B. Duff,      |
 |  J. M. Escartin, M. Escobar Azor, A. Greco,                   |
 |  H. Helal, Q. O. Hill, L. P. Lee, J.-H. Li,                   |
 |  E. B. Linscott, G. Moynihan, D. D. O`Regan,                  |
 |  O. K. Okan, M. J. S. Phipps, C. J. Pickard,                  |
 |  J. C. A. Prentice, M. I. J. Probert, L. E. Ratcliff,         |
 |  M. Robinson, A. Ruiz Serrano, M. dos Santos Dias,            |
 |  J. S. Spencer, E. W. Tait, G. Teobaldi, D. Turban,           |
 |  V. Vitale, K. A. Wilkinson, C. Weber, J. C. Womack,          |
 |  N. Yeung and T. J. Zuehlsdorff                               |
 |                                                               |
 |                                   Copyright (c) 2004-2024     |
 |                                                               |
 |  Please cite:                                                 |
 |  "The ONETEP linear-scaling density functional theory program"|
 |   J. Chem. Phys. 152(17) 174111 (2020)                        |
 |                                                               |
 |          in all publications arising from your use of ONETEP. |
 |                                                               |
 +---------------------------------------------------------------+
 |                                                               |
 |   ONETEP is based on developments described in the following  |
 |   publications:                                               |
 |                                                               |
 |  "Nonorthogonal generalized Wannier function pseudopotential  |
 |   plane-wave method".                                         |
 |   C.-K. Skylaris, A. A. Mostofi, P. D. Haynes, O. Dieguez,    |
 |   M. C. Payne.                                                |
 |   Phys. Rev. B 66 035119 (2002).                              |
 |                                                               |
 |  "Preconditioned iterative minimization for linear-scaling    |
 |   electronic structure calculations".                         |
 |   A. A. Mostofi, P. D. Haynes, C.-K. Skylaris, M. C. Payne.   |
 |   J. Chem. Phys. 119(17), pp.8842-8848 (2003).                |
 |                                                               |
 |  "Total-energy calculations on a real space grid with         |
 |   localized functions and a plane-wave basis".                |
 |   A. A. Mostofi, C.-K. Skylaris, P. D. Haynes, M. C. Payne.   |
 |   Comput. Phys. Commun. 147, pp.788-802 (2002).               |
 |                                                               |
 |  "Accurate kinetic energy evaluation in electronic structure  |
 |   calculations with localized functions on real space grids"  |
 |   C.-K. Skylaris, A. A. Mostofi, P. D. Haynes, C. J. Pickard, |
 |   M. C. Payne.                                                |
 |   Comput. Phys. Commun. 140, pp.315-322 (2001).               |
 |                                                               |
 |  "Accurate ionic forces and geometry optimization in linear-  |
 |   scaling density-functional theory with local orbitals"      |
 |   N. D. M. Hine, M. Robinson, P. D. Haynes, C.-K. Skylaris,   |
 |   M. C. Payne, and A. A. Mostofi.                             |
 |   Phys. Rev. B 83 195102 (2011).                              |
 |                                                               |
 +---------------------------------------------------------------+

Job started: 16-05-2024 22:06 (+0100)
 
Reading parameters from file "hBN_66_C_B_nspF.dat" ...... done

If your calculation crashes here, before "Checking processes and threads..."
is displayed, then your stack size is insufficient.
If so, use "ulimit -s unlimited" at runtime.
You can disable this check with "check_stack_size F".

Checking processes and threads...
   Running with 16 MPI processes.
   There are 16 MPI processes running on the same node as the root process.
   Each MPI process is using: 
               1 threads for simulation cell FFTs.
               1 threads for threaded FFT box operations.
               8 threads for loops over batched FFT box operations.
               8 threads in other parallel regions.
   MPI Interface: S1 (use mpi_f08) (-DMPI -DUSE_MPI_F08).
   MPI_ASYNC_PROTECTS_NONBLOCKING: Yes. MPI_SUBARRAYS_SUPPORTED: Yes.
   FFTW Interface: OMP-capable and MODERN. (-DUSE_MODERN_FFTW specified).
   GPU Interface: None.
... done

Basic input checks...... done

Reading geometry and species blocks from file "hBN_66_C_B_nspF.dat" ...
  <species_atomic_set> block not found: NGWF initialisation set to SOLVE
... done


--------------------------------------------------------------------------------
---------------------------------- INPUT FILE ----------------------------------
--------------------------------------------------------------------------------

charge : 0                                                                      
comms_group_size : 8                                                            
cutoff_energy : 800 eV                                                          
do_properties : T                                                               
edft : F                                                                        
edft_maxit : 15                                                                 
edft_spin_fix : 0                                                               
fast_density : F                                                                
fine_grid_scale : 2                                                             
forces_output_detail : VERBOSE                                                  
geom_continuation : F                                                           
geom_force_tol : 0.01 eV/Ang                                                    
homo_plot : 1                                                                   
lumo_plot : 1                                                                   
maxit_ngwf_cg : 30                                                              
ngwf_threshold_orig : 1e-06                                                     
ngwfs_spin_polarized : F                                                        
output_detail : BRIEF                                                           
paw : T                                                                         
pseudo_path : .                                                                 
read_denskern : F                                                               
read_hamiltonian : F                                                            
read_tightbox_ngwfs : F                                                         
run_time : 86000                                                                
task : GEOMETRYOPTIMIZATION                                                     
write_denskern : T                                                              
write_forces : T                                                                
write_hamiltonian : F                                                           
write_tightbox_ngwfs : T                                                        
xc_functional : PBE                                                             
%BLOCK LATTICE_CART                                                             
ang                                                                             
15.06648071       0.00000000       0.00000000                                   
-7.53324036      13.04795505       0.00000000                                   
0.00000000       0.00000000      16.00000008                                    
%ENDBLOCK LATTICE_CART                                                          
%BLOCK POSITIONS_ABS                                                            
ang                                                                             
B     0.000000     0.000000     8.000000                                        
N     1.255540     0.724886     8.000000                                        
B    -1.255540     2.174659     8.000000                                        
N     0.000000     2.899546     8.000000                                        
B    -2.511080     4.349318     8.000000                                        
N    -1.255540     5.074205     8.000000                                        
B    -3.766620     6.523978     8.000000                                        
N    -2.511080     7.248864     8.000000                                        
B    -5.022160     8.698637     8.000000                                        
N    -3.766620     9.423523     8.000000                                        
B    -6.277700    10.873296     8.000000                                        
N    -5.022160    11.598182     8.000000                                        
B     2.511080     0.000000     8.000000                                        
N     3.766620     0.724886     8.000000                                        
B     1.255540     2.174659     8.000000                                        
N     2.511080     2.899546     8.000000                                        
B     0.000000     4.349318     8.000000                                        
N     1.255540     5.074205     8.000000                                        
B    -1.255540     6.523978     8.000000                                        
N    -0.000000     7.248864     8.000000                                        
B    -2.511080     8.698637     8.000000                                        
N    -1.255540     9.423523     8.000000                                        
B    -3.766620    10.873296     8.000000                                        
N    -2.511080    11.598182     8.000000                                        
B     5.022160     0.000000     8.000000                                        
N     6.277700     0.724886     8.000000                                        
B     3.766620     2.174659     8.000000                                        
N     5.022160     2.899546     8.000000                                        
B     2.511080     4.349318     8.000000                                        
N     3.766620     5.074205     8.000000                                        
B     1.255540     6.523978     8.000000                                        
N     2.511080     7.248864     8.000000                                        
B     0.000000     8.698637     8.000000                                        
N     1.255540     9.423523     8.000000                                        
B    -1.255540    10.873296     8.000000                                        
N     0.000000    11.598182     8.000000                                        
B     7.533240     0.000000     8.000000                                        
N     8.788780     0.724886     8.000000                                        
B     6.277700     2.174659     8.000000                                        
N     7.533240     2.899546     8.000000                                        
B     5.022160     4.349318     8.000000                                        
N     6.277700     5.074205     8.000000                                        
C     3.766620     6.523978     8.000000                                        
N     5.022160     7.248864     8.000000                                        
B     2.511080     8.698637     8.000000                                        
N     3.766620     9.423523     8.000000                                        
B     1.255540    10.873296     8.000000                                        
N     2.511080    11.598182     8.000000                                        
B    10.044320     0.000000     8.000000                                        
N    11.299861     0.724886     8.000000                                        
B     8.788780     2.174659     8.000000                                        
N    10.044320     2.899546     8.000000                                        
B     7.533240     4.349318     8.000000                                        
N     8.788780     5.074205     8.000000                                        
B     6.277700     6.523978     8.000000                                        
N     7.533240     7.248864     8.000000                                        
B     5.022160     8.698637     8.000000                                        
N     6.277700     9.423523     8.000000                                        
B     3.766620    10.873296     8.000000                                        
N     5.022160    11.598182     8.000000                                        
B    12.555401     0.000000     8.000000                                        
N    13.810941     0.724886     8.000000                                        
B    11.299861     2.174659     8.000000                                        
N    12.555401     2.899546     8.000000                                        
B    10.044320     4.349318     8.000000                                        
N    11.299861     5.074205     8.000000                                        
B     8.788780     6.523978     8.000000                                        
N    10.044320     7.248864     8.000000                                        
B     7.533240     8.698637     8.000000                                        
N     8.788780     9.423523     8.000000                                        
B     6.277700    10.873296     8.000000                                        
N     7.533240    11.598182     8.000000                                        
%ENDBLOCK POSITIONS_ABS                                                         
%BLOCK SPECIES                                                                  
B B 5 -1 10.0                                                                   
C C 6 -1 10.0                                                                   
N N 7 -1 10.0                                                                   
%ENDBLOCK SPECIES                                                               
%BLOCK SPECIES_POT                                                              
B B.PBE-paw.abinit                                                              
C C.PBE-paw.abinit                                                              
N N.PBE-paw.abinit                                                              
%ENDBLOCK SPECIES_POT                                                           

--------------------------------------------------------------------------------
-------------------------------- END INPUT FILE --------------------------------
--------------------------------------------------------------------------------


 
 ESDF WARNING(1): "charge" (esdf_physical) has no units. Assume "e".
<<<<<<<<<<<<<<<<<<<<<<<<<<<<<<<<< Full system >>>>>>>>>>>>>>>>>>>>>>>>>>>>>>>>>>
<<<<<<<<<<<<<<<<<<<<<<<<<<< PAW Dataset information >>>>>>>>>>>>>>>>>>>>>>>>>>>
File: B.PBE-paw.abinit; rc = 1.70 bohr; shape type =  2; rshape = 1.61 bohr;
  Atomic number:  5;  ionic charge:  3.000000
    Partial Wave 1: l = 0
    Partial Wave 2: l = 0
    Partial Wave 3: l = 1
    Partial Wave 4: l = 1
  Core charge supplied for Nonlinear Core Corrections
File: N.PBE-paw.abinit; rc = 1.20 bohr; shape type =  2; rshape = 1.01 bohr;
  Atomic number:  7;  ionic charge:  5.000000
    Partial Wave 1: l = 0
    Partial Wave 2: l = 0
    Partial Wave 3: l = 1
    Partial Wave 4: l = 1
  Core charge supplied for Nonlinear Core Corrections
File: C.PBE-paw.abinit; rc = 1.51 bohr; shape type =  2; rshape = 1.30 bohr;
  Atomic number:  6;  ionic charge:  4.000000
    Partial Wave 1: l = 0
    Partial Wave 2: l = 0
    Partial Wave 3: l = 1
    Partial Wave 4: l = 1
  Core charge supplied for Nonlinear Core Corrections
<<<<<<<<<<<<<<<<<<<<<<<<<<<<<<<<<<<<<<< >>>>>>>>>>>>>>>>>>>>>>>>>>>>>>>>>>>>>>>

-------------------------- Atom counting information ---------------------------
Symbol    Natoms    Nngwfs    Nprojs
  B         35       140       280
  N         36       144       288
  C          1         4         8
.......   ......    ......    ......
Totals:     72       288       576
--------------------------------------------------------------------------------

=============================== PSINC grid sizes ===============================
                      Simulation cell:   63 x  63 x  63
                              FFT-box:   63 x  63 x  63
                                  PPD:    7 x   7 x   1
================================================================================

Atom SCF Calculation for B  : Z (AE atom) =   5 : Z (PS atom) =   3
Config String: 2s2.0 2p1.0
Orbitals (num,occ):  2     2.00 1.00
Orbitals   (num,l):  2        0    1
Atom SCF converged after  23 iterations to a total energy of     -2.61457988

Atom SCF Calculation for C  : Z (AE atom) =   6 : Z (PS atom) =   4
Config String: 2s2.0 2p2.0
Orbitals (num,occ):  2     2.00 2.00
Orbitals   (num,l):  2        0    1
Atom SCF converged after  22 iterations to a total energy of     -5.40758077

Atom SCF Calculation for N  : Z (AE atom) =   7 : Z (PS atom) =   5
Config String: 2s2.0 2p3.0
Orbitals (num,occ):  2     2.00 3.00
Orbitals   (num,l):  2        0    1
Atom SCF converged after  23 iterations to a total energy of     -9.72185112

================================================================================
<<<<<<<<<<<<<<<<<<<< Starting ONETEP Geometry Optimisation >>>>>>>>>>>>>>>>>>>>>
================================================================================

 Geometry Optimisation: output file is "hBN_66_C_B_nspF.geom"
 
Calculating Ewald energy ...             1160.207299 Hartree

============================= Charge Augmentation ==============================
                           Aug box size:   21 x  21 x  21
================================================================================

================================= Core Density =================================
               Core den box size:   33 x  33 x  25
================================================================================
Density kernel initialisation

################################################################################
###################### NGWF self-consistent optimisation #######################
################################################################################
|ITER|    RMS GRADIENT   |     TOTAL ENERGY    |   step   |     Epredicted      
   0     0.00049884342128   -467.03842221210658   1.475524   -469.64743685590071        
   1     0.00017689728605   -469.67198593784019   1.621931   -470.03593466342096        
   2     0.00007712879231   -470.04164886572772   1.629812   -470.11168601860498        
   3     0.00004035176382   -470.11280030827152   1.696993   -470.13273440969101        
   4     0.00002513446502   -470.13292098623117   1.198117   -470.13829922941102        
   5     0.00001567477779   -470.13832594156884   2.178270   -470.14213070005388        
   6     0.00001147917513   -470.14212108993621   1.990321   -470.14397849010487        
   7     0.00000754085020   -470.14392932908657   1.784931   -470.14462937580481        
   8     0.00000505925118   -470.14460098302368   1.541027   -470.14488125816308        
   9     0.00000391691437   -470.14487993731308   2.178391   -470.14511420676064        
  10     0.00000258178577   -470.14509539886194   1.274477   -470.14515108885240        

================================================================================
           ---------------- ENERGY COMPONENTS (Eh) ----------------
           | Kinetic                    :      284.99115695401645 |
           | Core Hartree               :    -3378.03104351932552 |
           | CoreHart (non-coul chg cor):        0.00000000000000
           | Hartree                    :     1552.12140319510354 |
           | Exchange-correlation       :     -138.45435557686332 |
           | Ewald                      :     1160.20729898512400 |
           | Dij0                       :       56.59036876049927 |
           | Dijhartree                 :        0.30104357886981 |
           | Exc [AE core]              :     -350.22399601482846 |
           | Exc DC [AE core]           :     -124.23700456424081 |
           | Exc [PS core]              :      -91.62662181110228 |
           | Exc DC [PS core]           :     -108.56564589940103 |
           | Exc [Core]                 :     -250.72635480246217 |
           | Total [Sphere]             :       49.02039293810509 |
           | Total                      :     -470.14514702383980 |
           --------------------------------------------------------
           Integrated compensation chrg.:        7.17439136803711
           Integrated density           :      288.99999999999972
           Integrated spin density      :        0.99999999999990
           Integrated |spin density|    :        1.01828556577923
================================================================================

  11     0.00000047112313   -470.14514702384065  <-- CG                                 

================================= Core Density =================================
               Core den box size:   33 x  33 x  25
================================================================================
 
********************* Unconstrained **********************
********************** Ewald forces **********************
*                                                        *
* Element  Atom         Cartesian components (Eh/a)      *
* ------------------------------------------------------ *
*                       x            y            z      *
*                                                        *
*    B       1      0.00000105  -0.00000126   0.00000000 *
*    N       2     -0.00617840  -0.01655998  -0.00000000 *
*    B       3     -0.00750241  -0.00518618   0.00000000 *
*    N       4     -0.02811648  -0.02632542  -0.00000000 *
*    B       5     -0.00824223  -0.00390301  -0.00000000 *
*    N       6     -0.03685432  -0.01118802  -0.00000000 *
*    B       7     -0.00000243  -0.00000074  -0.00000000 *
*    N       8     -0.01743371   0.00293007  -0.00000000 *
*    B       9      0.00824047   0.00390456  -0.00000000 *
*    N      10     -0.00000120   0.00425307  -0.00000000 *
*    B      11      0.00750146   0.00518510   0.00000000 *
*    N      12      0.00368243  -0.00212559   0.00000000 *
*    B      13     -0.00073958  -0.00909036   0.00000000 *
*    N      14      0.00000001  -0.02799981   0.00000000 *
*    B      15     -0.01286368  -0.02228153  -0.00000000 *
*    N      16     -0.02811528  -0.08147142   0.00000000 *
*    B      17     -0.03321838  -0.01917624   0.00000000 *
*    N      18     -0.13854145  -0.07998649  -0.00000000 *
*    B      19     -0.02572783  -0.00000162   0.00000000 *
*    N      20     -0.08461123   0.01638544  -0.00000000 *
*    B      21     -0.00824200   0.00390346   0.00000000 *
*    N      22     -0.02425098   0.01400190   0.00000000 *
*    B      23     -0.00000043  -0.00000097  -0.00000000 *
*    N      24     -0.00368311  -0.00212495  -0.00000000 *
*    B      25      0.00073888  -0.00909005   0.00000000 *
*    N      26      0.00617900  -0.01655919  -0.00000000 *
*    B      27      0.00000005  -0.03835802   0.00000000 *
*    N      28      0.02811556  -0.08147135   0.00000000 *
*    B      29     -0.06491263  -0.11242977   0.00000000 *
*    N      30      0.00000014  -0.66293513  -0.00000000 *
*    B      31     -0.12982548  -0.00000164  -0.00000000 *
*    N      32     -0.57411942   0.33146797  -0.00000000 *
*    B      33     -0.03321839   0.01917756  -0.00000000 *
*    N      34     -0.05649564   0.06508362   0.00000000 *
*    B      35     -0.00750242   0.00518430   0.00000000 *
*    N      36     -0.01125325   0.01363373   0.00000000 *
*    B      37      0.00000008  -0.00000014  -0.00000000 *
*    N      38      0.00320250   0.00185108   0.00000000 *
*    B      39      0.01286400  -0.02228144  -0.00000000 *
*    N      40      0.02811732  -0.02632547  -0.00000000 *
*    B      41      0.06491281  -0.11242976  -0.00000000 *
*    N      42      0.13854186  -0.07998649  -0.00000000 *
*    C      43      0.00000012  -0.00000217   0.00000000 *
*    N      44      0.57411974   0.33146797  -0.00000000 *
*    B      45     -0.06491268   0.11243118  -0.00000000 *
*    N      46      0.00000011   0.15997501  -0.00000000 *
*    B      47     -0.01286363   0.02228028   0.00000000 *
*    N      48     -0.00873673   0.03751357   0.00000000 *
*    B      49     -0.00073701   0.00909169  -0.00000000 *
*    N      50     -0.00000366   0.00992123  -0.00000000 *
*    B      51      0.00750336  -0.00518576  -0.00000000 *
*    N      52      0.00859372  -0.00496470   0.00000000 *
*    B      53      0.03321878  -0.01917628  -0.00000000 *
*    N      54      0.03685564  -0.01118812   0.00000000 *
*    B      55      0.12982572  -0.00000163  -0.00000000 *
*    N      56      0.08461181   0.01638555   0.00000000 *
*    B      57      0.06491288   0.11243116  -0.00000000 *
*    N      58      0.05649625   0.06508361   0.00000000 *
*    B      59     -0.00000002   0.03835699  -0.00000000 *
*    N      60      0.00873660   0.03751269   0.00000000 *
*    B      61      0.00073877   0.00908949  -0.00000000 *
*    N      62     -0.00320184   0.00185077   0.00000000 *
*    B      63     -0.00000297   0.00000088   0.00000000 *
*    N      64     -0.00859310  -0.00496262   0.00000000 *
*    B      65      0.00824396  -0.00390092  -0.00000000 *
*    N      66     -0.00000429  -0.00369690   0.00000000 *
*    B      67      0.02572834  -0.00000170   0.00000000 *
*    N      68      0.01743379   0.00292862   0.00000000 *
*    B      69      0.03321890   0.01917770   0.00000000 *
*    N      70      0.02425227   0.01400096  -0.00000000 *
*    B      71      0.01286415   0.02227996  -0.00000000 *
*    N      72      0.01125575   0.01363171   0.00000000 *
*                                                        *
**********************************************************
TOTAL:              0.00000000  -0.00000000  -0.00000000
 
********************* Unconstrained **********************
***************** Local potential forces *****************
*                                                        *
* Element  Atom         Cartesian components (Eh/a)      *
* ------------------------------------------------------ *
*                       x            y            z      *
*                                                        *
*    B       1     -0.00081235   0.00047005  -0.00000015 *
*    N       2      0.00608309   0.01535250   0.00000032 *
*    B       3      0.00716678   0.00537137  -0.00000016 *
*    N       4      0.02634141   0.02577784   0.00000034 *
*    B       5      0.00823591   0.00351582  -0.00000015 *
*    N       6      0.03549700   0.00990979   0.00000030 *
*    B       7      0.00000710  -0.00093893  -0.00000014 *
*    N       8      0.01635029  -0.00241999   0.00000027 *
*    B       9     -0.00788214  -0.00365967  -0.00000015 *
*    N      10      0.00001152  -0.00337265   0.00000035 *
*    B      11     -0.00710658  -0.00500001  -0.00000015 *
*    N      12     -0.00290475   0.00168223   0.00000033 *
*    B      13      0.00077704   0.00865631  -0.00000015 *
*    N      14      0.00001412   0.02691321   0.00000033 *
*    B      15      0.01002594   0.02131052  -0.00000016 *
*    N      16      0.02603013   0.07022789   0.00000039 *
*    B      17      0.03214947   0.01855514  -0.00000014 *
*    N      18      0.12600716   0.07274350   0.00000043 *
*    B      19      0.02346528  -0.00197087  -0.00000007 *
*    N      20      0.07384074  -0.01257825   0.00000028 *
*    B      21      0.00788971  -0.00366052  -0.00000015 *
*    N      22      0.02332807  -0.01346369   0.00000034 *
*    B      23      0.00000076   0.00000122  -0.00000016 *
*    N      24      0.00293054   0.00168425   0.00000031 *
*    B      25     -0.00077131   0.00865778  -0.00000016 *
*    N      26     -0.00606288   0.01535008   0.00000033 *
*    B      27      0.00000368   0.03578192  -0.00000014 *
*    N      28     -0.02600712   0.07022316   0.00000037 *
*    B      29      0.04963365   0.10648311  -0.00000024 *
*    N      30      0.00000274   0.45845380  -0.00000042 *
*    B      31      0.11704246  -0.01025081  -0.00000023 *
*    N      32      0.39708872  -0.22925270   0.00000205 *
*    B      33      0.03098985  -0.01789065  -0.00000010 *
*    N      34      0.04781822  -0.05765137   0.00000021 *
*    B      35      0.00711604  -0.00500022  -0.00000016 *
*    N      36      0.01027366  -0.01294236   0.00000031 *
*    B      37      0.00081529   0.00046529  -0.00000015 *
*    N      38     -0.00295629  -0.00171991   0.00000032 *
*    B      39     -0.01002279   0.02130961  -0.00000014 *
*    N      40     -0.02631922   0.02578230   0.00000039 *
*    B      41     -0.04962747   0.10648421   0.00000008 *
*    N      42     -0.12598013   0.07274065   0.00000005 *
*    C      43     -0.00004221   0.00002452   0.00000004 *
*    N      44     -0.39702864  -0.22921808  -0.00000011 *
*    B      45      0.06739939  -0.09623372  -0.00000011 *
*    N      46      0.00001083  -0.14548933   0.00000016 *
*    B      47      0.01344116  -0.01933251  -0.00000016 *
*    N      48      0.00917000  -0.03569050   0.00000034 *
*    B      49      0.00107046  -0.00889132  -0.00000016 *
*    N      50      0.00001350  -0.00923536   0.00000032 *
*    B      51     -0.00715843   0.00537060  -0.00000015 *
*    N      52     -0.00798390   0.00461823   0.00000035 *
*    B      53     -0.03214349   0.01855678  -0.00000011 *
*    N      54     -0.03548133   0.00991123   0.00000035 *
*    B      55     -0.11703328  -0.01026271  -0.00000007 *
*    N      56     -0.07381157  -0.01258028   0.00000022 *
*    B      57     -0.06740077  -0.09622393  -0.00000029 *
*    N      58     -0.04779594  -0.05764750   0.00000032 *
*    B      59      0.00000450  -0.03711921  -0.00000015 *
*    N      60     -0.00914489  -0.03569311   0.00000031 *
*    B      61     -0.00106633  -0.00889036  -0.00000016 *
*    N      62      0.00298466  -0.00171978   0.00000031 *
*    B      63      0.00000340  -0.00000045  -0.00000016 *
*    N      64      0.00800872   0.00461960   0.00000032 *
*    B      65     -0.00823076   0.00351136  -0.00000015 *
*    N      66      0.00001866   0.00342650   0.00000039 *
*    B      67     -0.02346452  -0.00197090  -0.00000012 *
*    N      68     -0.01632425  -0.00241607   0.00000030 *
*    B      69     -0.03098514  -0.01789251  -0.00000017 *
*    N      70     -0.02329968  -0.01346197   0.00000035 *
*    B      71     -0.01344129  -0.01933600  -0.00000015 *
*    N      72     -0.01025283  -0.01293738   0.00000031 *
*                                                        *
**********************************************************
TOTAL:              0.00051936  -0.00007322   0.00000680
 
********************* Unconstrained **********************
************** Compensation density forces ***************
*                                                        *
* Element  Atom         Cartesian components (Eh/a)      *
* ------------------------------------------------------ *
*                       x            y            z      *
*                                                        *
*    B       1     -0.00001369   0.00000799   0.00000045 *
*    N       2     -0.00000210   0.00002514   0.00000155 *
*    B       3     -0.00001348  -0.00000509   0.00000045 *
*    N       4      0.00004136   0.00001621   0.00000154 *
*    B       5     -0.00001137  -0.00000817   0.00000045 *
*    N       6      0.00003463   0.00002856   0.00000155 *
*    B       7     -0.00000059  -0.00001507   0.00000045 *
*    N       8      0.00002006  -0.00001394   0.00000155 *
*    B       9      0.00000646   0.00000354   0.00000045 *
*    N      10     -0.00000003  -0.00002105   0.00000154 *
*    B      11      0.00000556   0.00000451   0.00000045 *
*    N      12     -0.00001892   0.00001109   0.00000154 *
*    B      13     -0.00000107  -0.00000693   0.00000045 *
*    N      14     -0.00000029   0.00002341   0.00000155 *
*    B      15     -0.00008092  -0.00004319   0.00000045 *
*    N      16      0.00001382   0.00024214   0.00000157 *
*    B      17     -0.00007993  -0.00004526   0.00000044 *
*    N      18      0.00030241   0.00017478   0.00000157 *
*    B      19     -0.00007893  -0.00004795   0.00000045 *
*    N      20      0.00021634  -0.00010882   0.00000157 *
*    B      21     -0.00000726   0.00000382   0.00000045 *
*    N      22      0.00001970  -0.00001118   0.00000154 *
*    B      23     -0.00000026   0.00000024   0.00000045 *
*    N      24      0.00001837   0.00001080   0.00000154 *
*    B      25      0.00000023  -0.00000720   0.00000045 *
*    N      26      0.00000190   0.00002510   0.00000155 *
*    B      27     -0.00000066  -0.00003875   0.00000044 *
*    N      28     -0.00001443   0.00024245   0.00000157 *
*    B      29     -0.00046818  -0.00026815   0.00000041 *
*    N      30     -0.00000061   0.00481031   0.00000192 *
*    B      31     -0.00046582  -0.00026967   0.00000047 *
*    N      32      0.00416403  -0.00240725   0.00000189 *
*    B      33     -0.00003407   0.00001978   0.00000045 *
*    N      34      0.00020249  -0.00013239   0.00000157 *
*    B      35     -0.00000685   0.00000449   0.00000045 *
*    N      36      0.00002227  -0.00001014   0.00000155 *
*    B      37      0.00001273   0.00000789   0.00000045 *
*    N      38     -0.00000137  -0.00000029   0.00000154 *
*    B      39      0.00008073  -0.00004333   0.00000045 *
*    N      40     -0.00004185   0.00001597   0.00000154 *
*    B      41      0.00046683  -0.00026737   0.00000042 *
*    N      42     -0.00030331   0.00017548   0.00000158 *
*    C      43      0.00000059  -0.00000046  -0.00000006 *
*    N      44     -0.00416476  -0.00240376   0.00000191 *
*    B      45      0.00000103   0.00053819   0.00000042 *
*    N      46      0.00000001  -0.00034886   0.00000158 *
*    B      47      0.00000218   0.00009281   0.00000045 *
*    N      48     -0.00000728  -0.00004400   0.00000154 *
*    B      49      0.00000143   0.00001402   0.00000045 *
*    N      50     -0.00000001  -0.00001466   0.00000154 *
*    B      51      0.00001216  -0.00000507   0.00000045 *
*    N      52     -0.00001339   0.00000791   0.00000154 *
*    B      53      0.00007911  -0.00004563   0.00000044 *
*    N      54     -0.00003458   0.00002854   0.00000154 *
*    B      55      0.00046452  -0.00027060   0.00000038 *
*    N      56     -0.00021675  -0.00010830   0.00000158 *
*    B      57     -0.00000179   0.00053966   0.00000042 *
*    N      58     -0.00020270  -0.00013286   0.00000157 *
*    B      59     -0.00000071   0.00009200   0.00000044 *
*    N      60      0.00000678  -0.00004365   0.00000154 *
*    B      61     -0.00000225   0.00001434   0.00000045 *
*    N      62      0.00000075  -0.00000027   0.00000154 *
*    B      63     -0.00000024   0.00000022   0.00000045 *
*    N      64      0.00001284   0.00000760   0.00000154 *
*    B      65      0.00001054  -0.00000791   0.00000045 *
*    N      66     -0.00000030   0.00000159   0.00000154 *
*    B      67      0.00007827  -0.00004787   0.00000043 *
*    N      68     -0.00002059  -0.00001394   0.00000155 *
*    B      69      0.00003328   0.00002006   0.00000044 *
*    N      70     -0.00002025  -0.00001118   0.00000155 *
*    B      71     -0.00000299   0.00009181   0.00000045 *
*    N      72     -0.00002270  -0.00001052   0.00000155 *
*                                                        *
**********************************************************
TOTAL:             -0.00002384   0.00002175   0.00007239
 
********************* Unconstrained **********************
*************** Non-local potential forces ***************
*                                                        *
* Element  Atom         Cartesian components (Eh/a)      *
* ------------------------------------------------------ *
*                       x            y            z      *
*                                                        *
*    B       1      0.00034661  -0.00020161  -0.00000026 *
*    N       2      0.00056682   0.00158873  -0.00000135 *
*    B       3      0.00036794   0.00014556  -0.00000025 *
*    N       4      0.00176670   0.00015322  -0.00000136 *
*    B       5      0.00033081   0.00019999  -0.00000025 *
*    N       6      0.00099726   0.00148225  -0.00000129 *
*    B       7      0.00002728   0.00035915  -0.00000024 *
*    N       8      0.00164175  -0.00027039  -0.00000124 *
*    B       9     -0.00016724  -0.00012455  -0.00000024 *
*    N      10     -0.00002926  -0.00077249  -0.00000138 *
*    B      11     -0.00016211  -0.00012351  -0.00000026 *
*    N      12     -0.00070078   0.00039528  -0.00000136 *
*    B      13      0.00002490   0.00019971  -0.00000026 *
*    N      14     -0.00002596   0.00133990  -0.00000135 *
*    B      15      0.00203562   0.00107974  -0.00000025 *
*    N      16      0.00594767   0.01351505  -0.00000136 *
*    B      17      0.00212943   0.00119494  -0.00000025 *
*    N      18      0.01197099   0.00692915  -0.00000146 *
*    B      19      0.00197940   0.00118647  -0.00000015 *
*    N      20      0.01465499  -0.00156838  -0.00000135 *
*    B      21      0.00021477  -0.00012934  -0.00000025 *
*    N      22      0.00112716  -0.00065983  -0.00000137 *
*    B      23      0.00002030  -0.00001322  -0.00000026 *
*    N      24      0.00064643   0.00039771  -0.00000134 *
*    B      25      0.00002310   0.00020454  -0.00000025 *
*    N      26     -0.00062526   0.00158940  -0.00000136 *
*    B      27      0.00002828   0.00116523  -0.00000024 *
*    N      28     -0.00600451   0.01351564  -0.00000134 *
*    B      29      0.01317183   0.00732740  -0.00000012 *
*    N      30     -0.00004824   0.23965092   0.00000047 *
*    B      31      0.01295452   0.00769258  -0.00000069 *
*    N      32      0.20746076  -0.11979040  -0.00000370 *
*    B      33      0.00104254  -0.00060349  -0.00000028 *
*    N      34      0.00867734  -0.01192238  -0.00000114 *
*    B      35      0.00021814  -0.00012343  -0.00000026 *
*    N      36      0.00104766  -0.00129955  -0.00000134 *
*    B      37     -0.00029774  -0.00020336  -0.00000025 *
*    N      38     -0.00076058  -0.00041690  -0.00000134 *
*    B      39     -0.00199792   0.00108006  -0.00000025 *
*    N      40     -0.00181991   0.00015683  -0.00000143 *
*    B      41     -0.01312472   0.00732104  -0.00000024 *
*    N      42     -0.01202082   0.00692955  -0.00000101 *
*    C      43      0.00003282  -0.00002007   0.00000036 *
*    N      44     -0.20757463  -0.11980238  -0.00000117 *
*    B      45     -0.00018821  -0.01506684  -0.00000033 *
*    N      46     -0.00002464  -0.01384703  -0.00000122 *
*    B      47     -0.00003947  -0.00231242  -0.00000024 *
*    N      48     -0.00079350  -0.00161918  -0.00000137 *
*    B      49     -0.00000850  -0.00038830  -0.00000025 *
*    N      50     -0.00002909  -0.00078070  -0.00000135 *
*    B      51     -0.00031162   0.00014569  -0.00000026 *
*    N      52     -0.00070855   0.00039867  -0.00000138 *
*    B      53     -0.00208175   0.00120090  -0.00000025 *
*    N      54     -0.00105501   0.00148250  -0.00000143 *
*    B      55     -0.01289919   0.00770431   0.00000016 *
*    N      56     -0.01471545  -0.00157149  -0.00000120 *
*    B      57      0.00023889  -0.01507330  -0.00000020 *
*    N      58     -0.00874061  -0.01192290  -0.00000141 *
*    B      59      0.00002891  -0.00244402  -0.00000027 *
*    N      60      0.00074150  -0.00162141  -0.00000134 *
*    B      61      0.00005658  -0.00039363  -0.00000026 *
*    N      62      0.00070684  -0.00041738  -0.00000134 *
*    B      63      0.00001986  -0.00001286  -0.00000026 *
*    N      64      0.00065373   0.00039999  -0.00000135 *
*    B      65     -0.00028295   0.00019543  -0.00000025 *
*    N      66     -0.00002772   0.00085279  -0.00000143 *
*    B      67     -0.00193778   0.00118605  -0.00000008 *
*    N      68     -0.00169696  -0.00026845  -0.00000136 *
*    B      69     -0.00099612  -0.00060900  -0.00000023 *
*    N      70     -0.00118065  -0.00066088  -0.00000139 *
*    B      71      0.00008153  -0.00230500  -0.00000027 *
*    N      72     -0.00110022  -0.00129883  -0.00000134 *
*                                                        *
**********************************************************
TOTAL:             -0.00019597  -0.00029250  -0.00005660
 
********************* Unconstrained **********************
************ NGWF non self-consistent forces *************
*                                                        *
* Element  Atom         Cartesian components (Eh/a)      *
* ------------------------------------------------------ *
*                       x            y            z      *
*                                                        *
*    B       1     -0.00000371   0.00000216   0.00000003 *
*    N       2     -0.00002103   0.00000964   0.00000006 *
*    B       3      0.00001356   0.00004000   0.00000002 *
*    N       4     -0.00003047   0.00003050   0.00000006 *
*    B       5      0.00004572  -0.00000244   0.00000002 *
*    N       6      0.00000157  -0.00001253   0.00000003 *
*    B       7     -0.00000691  -0.00000545   0.00000003 *
*    N       8     -0.00001819  -0.00000063   0.00000007 *
*    B       9      0.00001057   0.00001229   0.00000002 *
*    N      10     -0.00001105   0.00001128   0.00000006 *
*    B      11      0.00000903   0.00000192   0.00000002 *
*    N      12     -0.00001251   0.00000721   0.00000006 *
*    B      13      0.00000287  -0.00000876   0.00000002 *
*    N      14     -0.00001255  -0.00000519   0.00000006 *
*    B      15      0.00003127   0.00001207   0.00000003 *
*    N      16     -0.00007720  -0.00004204   0.00000001 *
*    B      17      0.00007250   0.00005056   0.00000003 *
*    N      18      0.00000866   0.00001842   0.00000014 *
*    B      19      0.00003299   0.00001212   0.00000000 *
*    N      20     -0.00009480  -0.00002741   0.00000012 *
*    B      21     -0.00001403   0.00001893   0.00000003 *
*    N      22     -0.00002337   0.00001348   0.00000006 *
*    B      23      0.00000498  -0.00000287   0.00000003 *
*    N      24     -0.00001532   0.00000389   0.00000006 *
*    B      25     -0.00000535  -0.00001528   0.00000002 *
*    N      26     -0.00000141   0.00001082   0.00000007 *
*    B      27     -0.00000705  -0.00011079   0.00000002 *
*    N      28      0.00005198  -0.00004448  -0.00000004 *
*    B      29      0.00005546  -0.00001896   0.00000001 *
*    N      30     -0.00001033   0.00074006  -0.00000002 *
*    B      31      0.00000040   0.00005459  -0.00000002 *
*    N      32      0.00063577  -0.00036720   0.00000018 *
*    B      33     -0.00009190   0.00005306   0.00000003 *
*    N      34     -0.00002365   0.00009577  -0.00000001 *
*    B      35     -0.00002340   0.00000271   0.00000002 *
*    N      36     -0.00000857   0.00001605   0.00000007 *
*    B      37      0.00000128   0.00000873   0.00000002 *
*    N      38      0.00000842   0.00001887   0.00000006 *
*    B      39     -0.00002115   0.00001297   0.00000002 *
*    N      40      0.00000290   0.00002641   0.00000006 *
*    B      41     -0.00005651  -0.00001441  -0.00000001 *
*    N      42     -0.00003812   0.00002199  -0.00000003 *
*    C      43      0.00000884  -0.00000531   0.00000036 *
*    N      44     -0.00064606  -0.00036125   0.00000014 *
*    B      45     -0.00004705  -0.00002755  -0.00000002 *
*    N      46     -0.00001168  -0.00001672   0.00000012 *
*    B      47      0.00000601  -0.00003461   0.00000003 *
*    N      48      0.00001164   0.00000488   0.00000006 *
*    B      49      0.00002499  -0.00003834   0.00000002 *
*    N      50     -0.00001109   0.00001097   0.00000006 *
*    B      51     -0.00002774   0.00003979   0.00000002 *
*    N      52     -0.00001237   0.00000713   0.00000006 *
*    B      53     -0.00007437   0.00004297   0.00000002 *
*    N      54     -0.00002142  -0.00001571   0.00000012 *
*    B      55     -0.00001580   0.00005615   0.00000001 *
*    N      56      0.00006452  -0.00002278   0.00000003 *
*    B      57      0.00004416  -0.00003846   0.00000005 *
*    N      58     -0.00000222   0.00008785   0.00000011 *
*    B      59     -0.00000752  -0.00008802   0.00000003 *
*    N      60     -0.00004166   0.00001110   0.00000007 *
*    B      61     -0.00002784  -0.00003172   0.00000002 *
*    N      62     -0.00003307   0.00001907   0.00000006 *
*    B      63      0.00000573  -0.00000330   0.00000002 *
*    N      64     -0.00001507   0.00000409   0.00000006 *
*    B      65     -0.00004832   0.00000416   0.00000002 *
*    N      66     -0.00001215  -0.00001675   0.00000007 *
*    B      67     -0.00002179   0.00001185   0.00000002 *
*    N      68     -0.00001012  -0.00000424   0.00000011 *
*    B      69      0.00009245   0.00006151   0.00000003 *
*    N      70     -0.00000179   0.00001344   0.00000008 *
*    B      71      0.00000519  -0.00003310   0.00000003 *
*    N      72     -0.00001889   0.00001336   0.00000007 *
*                                                        *
**********************************************************
TOTAL:             -0.00048314   0.00027850   0.00000338
 
********************* Unconstrained **********************
********************** NLCC forces ***********************
*                                                        *
* Element  Atom         Cartesian components (Eh/a)      *
* ------------------------------------------------------ *
*                       x            y            z      *
*                                                        *
*    B       1     -0.00000088   0.00000054  -0.00000004 *
*    N       2     -0.00000314  -0.00006890  -0.00011483 *
*    B       3     -0.00000033   0.00000009  -0.00000004 *
*    N       4     -0.00003707  -0.00003637  -0.00011482 *
*    B       5     -0.00000001  -0.00000044  -0.00000004 *
*    N       6     -0.00002098  -0.00006326  -0.00011440 *
*    B       7      0.00000009  -0.00000114  -0.00000003 *
*    N       8     -0.00003288  -0.00001532  -0.00011389 *
*    B       9      0.00000039   0.00000004  -0.00000004 *
*    N      10      0.00000911  -0.00000928  -0.00011481 *
*    B      11      0.00000029   0.00000020  -0.00000004 *
*    N      12      0.00002501  -0.00003743  -0.00011483 *
*    B      13      0.00000000  -0.00000030  -0.00000004 *
*    N      14      0.00000873  -0.00006458  -0.00011488 *
*    B      15     -0.00000400  -0.00000150  -0.00000004 *
*    N      16     -0.00012405  -0.00039691  -0.00011493 *
*    B      17     -0.00000208  -0.00000127  -0.00000004 *
*    N      18     -0.00031070  -0.00021130  -0.00011438 *
*    B      19     -0.00000327  -0.00000285   0.00000012 *
*    N      20     -0.00038095   0.00004786  -0.00011415 *
*    B      21     -0.00000020   0.00000005  -0.00000004 *
*    N      22     -0.00002307  -0.00001002  -0.00011489 *
*    B      23      0.00000010  -0.00000002  -0.00000004 *
*    N      24     -0.00000767  -0.00003770  -0.00011484 *
*    B      25      0.00000018  -0.00000031  -0.00000004 *
*    N      26      0.00002221  -0.00006878  -0.00011482 *
*    B      27      0.00000009  -0.00000181  -0.00000004 *
*    N      28      0.00014047  -0.00039832  -0.00011456 *
*    B      29     -0.00001842  -0.00000429  -0.00000002 *
*    N      30      0.00001026  -0.00718253  -0.00010618 *
*    B      31     -0.00001289  -0.00001376   0.00000025 *
*    N      32     -0.00619681   0.00354777  -0.00011546 *
*    B      33     -0.00000146   0.00000087  -0.00000004 *
*    N      34     -0.00024372   0.00027491  -0.00011475 *
*    B      35     -0.00000012   0.00000019  -0.00000004 *
*    N      36     -0.00002136   0.00000155  -0.00011482 *
*    B      37      0.00000104   0.00000051  -0.00000004 *
*    N      38      0.00002502  -0.00001872  -0.00011481 *
*    B      39      0.00000423  -0.00000148  -0.00000004 *
*    N      40      0.00005332  -0.00003683  -0.00011477 *
*    B      41      0.00001859  -0.00000428  -0.00000003 *
*    N      42      0.00032577  -0.00021102  -0.00011270 *
*    C      43      0.00003711  -0.00000013  -0.00035634 *
*    N      44      0.00619994   0.00354485  -0.00010229 *
*    B      45      0.00000552   0.00001809  -0.00000002 *
*    N      46      0.00000841   0.00034065  -0.00011482 *
*    B      47      0.00000087   0.00000434  -0.00000004 *
*    N      48      0.00002402   0.00001489  -0.00011481 *
*    B      49      0.00000040   0.00000028  -0.00000004 *
*    N      50      0.00000916  -0.00000958  -0.00011481 *
*    B      51      0.00000050   0.00000009  -0.00000004 *
*    N      52      0.00002436  -0.00003726  -0.00011485 *
*    B      53      0.00000226  -0.00000128  -0.00000004 *
*    N      54      0.00003931  -0.00006270  -0.00011429 *
*    B      55      0.00001294  -0.00001395  -0.00000030 *
*    N      56      0.00039469   0.00003929  -0.00011402 *
*    B      57     -0.00000546   0.00001814  -0.00000002 *
*    N      58      0.00026215   0.00027143  -0.00011462 *
*    B      59      0.00000008   0.00000248  -0.00000004 *
*    N      60     -0.00000717   0.00001558  -0.00011476 *
*    B      61     -0.00000022   0.00000029  -0.00000004 *
*    N      62     -0.00000716  -0.00001900  -0.00011479 *
*    B      63      0.00000010  -0.00000003  -0.00000004 *
*    N      64     -0.00000718  -0.00003761  -0.00011484 *
*    B      65      0.00000020  -0.00000044  -0.00000004 *
*    N      66      0.00000841  -0.00004631  -0.00011473 *
*    B      67      0.00000346  -0.00000284  -0.00000019 *
*    N      68      0.00004937  -0.00001852  -0.00011489 *
*    B      69      0.00000164   0.00000088  -0.00000004 *
*    N      70      0.00003987  -0.00000998  -0.00011482 *
*    B      71     -0.00000067   0.00000427  -0.00000004 *
*    N      72      0.00003797   0.00000248  -0.00011483 *
*                                                        *
**********************************************************
TOTAL:              0.00033371  -0.00100774  -0.00446423
 
********************* Unconstrained **********************
****** Correction to ensure the total force is zero ******
*                                                        *
* Element  Atom         Cartesian components (Eh/a)      *
* ------------------------------------------------------ *
*                       x            y            z      *
*                                                        *
*    B       1     -0.00000209   0.00001491   0.00006164 *
*    N       2     -0.00000209   0.00001491   0.00006164 *
*    B       3     -0.00000209   0.00001491   0.00006164 *
*    N       4     -0.00000209   0.00001491   0.00006164 *
*    B       5     -0.00000209   0.00001491   0.00006164 *
*    N       6     -0.00000209   0.00001491   0.00006164 *
*    B       7     -0.00000209   0.00001491   0.00006164 *
*    N       8     -0.00000209   0.00001491   0.00006164 *
*    B       9     -0.00000209   0.00001491   0.00006164 *
*    N      10     -0.00000209   0.00001491   0.00006164 *
*    B      11     -0.00000209   0.00001491   0.00006164 *
*    N      12     -0.00000209   0.00001491   0.00006164 *
*    B      13     -0.00000209   0.00001491   0.00006164 *
*    N      14     -0.00000209   0.00001491   0.00006164 *
*    B      15     -0.00000209   0.00001491   0.00006164 *
*    N      16     -0.00000209   0.00001491   0.00006164 *
*    B      17     -0.00000209   0.00001491   0.00006164 *
*    N      18     -0.00000209   0.00001491   0.00006164 *
*    B      19     -0.00000209   0.00001491   0.00006164 *
*    N      20     -0.00000209   0.00001491   0.00006164 *
*    B      21     -0.00000209   0.00001491   0.00006164 *
*    N      22     -0.00000209   0.00001491   0.00006164 *
*    B      23     -0.00000209   0.00001491   0.00006164 *
*    N      24     -0.00000209   0.00001491   0.00006164 *
*    B      25     -0.00000209   0.00001491   0.00006164 *
*    N      26     -0.00000209   0.00001491   0.00006164 *
*    B      27     -0.00000209   0.00001491   0.00006164 *
*    N      28     -0.00000209   0.00001491   0.00006164 *
*    B      29     -0.00000209   0.00001491   0.00006164 *
*    N      30     -0.00000209   0.00001491   0.00006164 *
*    B      31     -0.00000209   0.00001491   0.00006164 *
*    N      32     -0.00000209   0.00001491   0.00006164 *
*    B      33     -0.00000209   0.00001491   0.00006164 *
*    N      34     -0.00000209   0.00001491   0.00006164 *
*    B      35     -0.00000209   0.00001491   0.00006164 *
*    N      36     -0.00000209   0.00001491   0.00006164 *
*    B      37     -0.00000209   0.00001491   0.00006164 *
*    N      38     -0.00000209   0.00001491   0.00006164 *
*    B      39     -0.00000209   0.00001491   0.00006164 *
*    N      40     -0.00000209   0.00001491   0.00006164 *
*    B      41     -0.00000209   0.00001491   0.00006164 *
*    N      42     -0.00000209   0.00001491   0.00006164 *
*    C      43     -0.00000209   0.00001491   0.00006164 *
*    N      44     -0.00000209   0.00001491   0.00006164 *
*    B      45     -0.00000209   0.00001491   0.00006164 *
*    N      46     -0.00000209   0.00001491   0.00006164 *
*    B      47     -0.00000209   0.00001491   0.00006164 *
*    N      48     -0.00000209   0.00001491   0.00006164 *
*    B      49     -0.00000209   0.00001491   0.00006164 *
*    N      50     -0.00000209   0.00001491   0.00006164 *
*    B      51     -0.00000209   0.00001491   0.00006164 *
*    N      52     -0.00000209   0.00001491   0.00006164 *
*    B      53     -0.00000209   0.00001491   0.00006164 *
*    N      54     -0.00000209   0.00001491   0.00006164 *
*    B      55     -0.00000209   0.00001491   0.00006164 *
*    N      56     -0.00000209   0.00001491   0.00006164 *
*    B      57     -0.00000209   0.00001491   0.00006164 *
*    N      58     -0.00000209   0.00001491   0.00006164 *
*    B      59     -0.00000209   0.00001491   0.00006164 *
*    N      60     -0.00000209   0.00001491   0.00006164 *
*    B      61     -0.00000209   0.00001491   0.00006164 *
*    N      62     -0.00000209   0.00001491   0.00006164 *
*    B      63     -0.00000209   0.00001491   0.00006164 *
*    N      64     -0.00000209   0.00001491   0.00006164 *
*    B      65     -0.00000209   0.00001491   0.00006164 *
*    N      66     -0.00000209   0.00001491   0.00006164 *
*    B      67     -0.00000209   0.00001491   0.00006164 *
*    N      68     -0.00000209   0.00001491   0.00006164 *
*    B      69     -0.00000209   0.00001491   0.00006164 *
*    N      70     -0.00000209   0.00001491   0.00006164 *
*    B      71     -0.00000209   0.00001491   0.00006164 *
*    N      72     -0.00000209   0.00001491   0.00006164 *
*                                                        *
**********************************************************
TOTAL:             -0.00015012   0.00107320   0.00443825

********************* Unconstrained **********************
************************* Forces *************************
*                                                        *
* Element  Atom         Cartesian components (Eh/a)      *
* ------------------------------------------------------ *
*                       x            y            z      *
*                                                        *
*    B       1     -0.00048505   0.00029278   0.00006167 *
*    N       2      0.00044316   0.00036204  -0.00005261 *
*    B       3      0.00002998   0.00038065   0.00006167 *
*    N       4     -0.00003663  -0.00036911  -0.00005260 *
*    B       5      0.00035674  -0.00018335   0.00006168 *
*    N       6     -0.00034692   0.00017170  -0.00005217 *
*    B       7      0.00002244  -0.00058727   0.00006171 *
*    N       8      0.00052524   0.00022471  -0.00005161 *
*    B       9      0.00020642   0.00015112   0.00006168 *
*    N      10     -0.00002298   0.00010378  -0.00005260 *
*    B      11      0.00024557   0.00008312   0.00006167 *
*    N      12      0.00006840  -0.00005231  -0.00005261 *
*    B      13      0.00006207  -0.00023542   0.00006167 *
*    N      14     -0.00001804   0.00022184  -0.00005266 *
*    B      15     -0.00085786   0.00009101   0.00006167 *
*    N      16      0.00367301   0.00208961  -0.00005267 *
*    B      17      0.00104893   0.00059277   0.00006169 *
*    N      18     -0.00056501  -0.00031703  -0.00005207 *
*    B      19     -0.00033446  -0.00080980   0.00006200 *
*    N      20      0.00362300   0.00216534  -0.00005189 *
*    B      21     -0.00016109   0.00015130   0.00006168 *
*    N      22      0.00017541  -0.00011444  -0.00005268 *
*    B      23      0.00002336  -0.00000072   0.00006166 *
*    N      24     -0.00011286  -0.00005110  -0.00005262 *
*    B      25     -0.00001635  -0.00023560   0.00006167 *
*    N      26     -0.00048852   0.00036233  -0.00005260 *
*    B      27      0.00002230  -0.00154731   0.00006169 *
*    N      28     -0.00372014   0.00208200  -0.00005236 *
*    B      29     -0.00254036   0.00110425   0.00006169 *
*    N      30     -0.00004813   0.03355234  -0.00004258 *
*    B      31     -0.00030888  -0.00277381   0.00006141 *
*    N      32      0.02903097  -0.01678691  -0.00005339 *
*    B      33     -0.00131552   0.00077203   0.00006170 *
*    N      34     -0.00006703  -0.00423691  -0.00005247 *
*    B      35     -0.00020069   0.00008295   0.00006166 *
*    N      36      0.00005833  -0.00058581  -0.00005259 *
*    B      37      0.00053060   0.00029383   0.00006167 *
*    N      38     -0.00048438  -0.00027097  -0.00005258 *
*    B      39      0.00090502   0.00009129   0.00006169 *
*    N      40     -0.00000952  -0.00036589  -0.00005257 *
*    B      41      0.00258745   0.00110433   0.00006185 *
*    N      42      0.00052317  -0.00031494  -0.00005047 *
*    C      43      0.00003518   0.00001128  -0.00029399 *
*    N      44     -0.02909648  -0.01675774  -0.00003988 *
*    B      45      0.00225592   0.00167425   0.00006159 *
*    N      46     -0.00001904   0.00062863  -0.00005254 *
*    B      47      0.00054503   0.00071280   0.00006168 *
*    N      48     -0.00033393   0.00019457  -0.00005259 *
*    B      49      0.00034969  -0.00019707   0.00006167 *
*    N      50     -0.00002327  -0.00009319  -0.00005260 *
*    B      51      0.00001615   0.00038024   0.00006167 *
*    N      52     -0.00010222   0.00004488  -0.00005264 *
*    B      53     -0.00100156   0.00059237   0.00006171 *
*    N      54      0.00030051   0.00017064  -0.00005206 *
*    B      55      0.00035282  -0.00277352   0.00006182 *
*    N      56     -0.00367483   0.00215688  -0.00005174 *
*    B      57     -0.00221419   0.00166818   0.00006161 *
*    N      58      0.00001485  -0.00424547  -0.00005239 *
*    B      59      0.00002316  -0.00118487   0.00006166 *
*    N      60      0.00028909   0.00019611  -0.00005254 *
*    B      61     -0.00030337  -0.00019668   0.00006166 *
*    N      62      0.00044809  -0.00027169  -0.00005257 *
*    B      63      0.00002380  -0.00000062   0.00006166 *
*    N      64      0.00005786   0.00004595  -0.00005263 *
*    B      65     -0.00030941  -0.00018340   0.00006167 *
*    N      66     -0.00001946   0.00053582  -0.00005251 *
*    B      67      0.00038390  -0.00081051   0.00006170 *
*    N      68     -0.00057085   0.00022230  -0.00005265 *
*    B      69      0.00136292   0.00077354   0.00006167 *
*    N      70     -0.00021232  -0.00011470  -0.00005260 *
*    B      71     -0.00049617   0.00071684   0.00006166 *
*    N      72     -0.00010300  -0.00058427  -0.00005261 *
*                                                        *
**********************************************************
* TOTAL:           -0.00000000   0.00000000  -0.00000000 *
**********************************************************
 
 
***********************************************************
********** Summary of Forces (values in Eh/a) *************
*                                                         *
* ---------------------- Minimum ------------------------ *
* Atom:        23, |F|min =    0.00006594                 *
* Components:     Fx|min       Fy|min       Fz|min        *
*               0.00002336  -0.00000072   0.00006166      *
*                                                         *
* ---------------------- Maximum ------------------------ *
* Atom:        44, |F|max =    0.03357721                 *
* Components:     Fx|max       Fy|max       Fz|max        *
*              -0.02909648  -0.01675774  -0.00003988      *
*                                                         *
* ---------------- Root Mean Square Force --------------- *
*                  |F|rms =    0.00702811                 *
* Components:     Fx|rms       Fy|rms       Fz|rms        *
*               0.00497006   0.00496874   0.00006630      *
***********************************************************
 
 Geometry Optimisation: read_denskern parameter over-ridden to T
 Geometry Optimisation: read_tightbox_ngwfs parameter over-ridden to TRUE

BFGS: continuation file name is "hBN_66_C_B_nspF.continuation"
 BFGS: finished iteration   0  with enthalpy= -4.701451470238E+002 Eh
  
 +-----------+-----------------+-----------------+------------+-----+ <-- BFGS
 | Parameter |      value      |    tolerance    |    units   | OK? | <-- BFGS
 +-----------+-----------------+-----------------+------------+-----+ <-- BFGS
 |  dE/ion   |   0.000000E+000 |   1.000000E-006 |         Eh | No  | <-- BFGS
 |  |F|max   |   3.357721E-002 |   1.944690E-004 |    Eh/Bohr | No  | <-- BFGS
 |  |dR|max  |   0.000000E+000 |   5.000000E-003 |       Bohr | No  | <-- BFGS
 +-----------+-----------------+-----------------+------------+-----+ <-- BFGS
  

================================================================================
 Starting BFGS iteration    1 ...
================================================================================

 Writing continuation file "hBN_66_C_B_nspF.continuation" ...done
 Backing up NGWFs to file "hBN_66_C_B_nspF.tightbox_ngwfs.bfgs_back" ... done
 Backing up density kernel to file "hBN_66_C_B_nspF.dkn.bfgs_back" ... done
  
 +------------+-------------+-------------+-----------------+ <-- min BFGS
 |    Step    |   lambda    |   F.delta   |    enthalpy     | <-- min BFGS
 +------------+-------------+-------------+-----------------+ <-- min BFGS
 |  previous  |    0.000000 |    0.002718 |     -470.145147 | <-- min BFGS
 +------------+-------------+-------------+-----------------+ <-- min BFGS
  

--------------------------------------------------------------------------------
 BFGS: starting iteration   1 with trial guess (lambda=    1.000000)
--------------------------------------------------------------------------------
Calculating Ewald energy ...             1160.263527 Hartree

============================= Charge Augmentation ==============================
                           Aug box size:   21 x  21 x  21
================================================================================

Reading NGWFs from file "hBN_66_C_B_nspF.tightbox_ngwfs" ... done

================================= Core Density =================================
               Core den box size:   33 x  33 x  25
================================================================================

Reading density kernel from file "hBN_66_C_B_nspF.dkn" ... done

################################################################################
###################### NGWF self-consistent optimisation #######################
################################################################################
|ITER|    RMS GRADIENT   |     TOTAL ENERGY    |   step   |     Epredicted      
   0     0.00000735322908   -470.14685728615899   1.039463   -470.14725664839193        
   1     0.00000187873932   -470.14727347244587   1.028008   -470.14729992527595        

================================================================================
           ---------------- ENERGY COMPONENTS (Eh) ----------------
           | Kinetic                    :      284.98929227358519 |
           | Core Hartree               :    -3378.10045765872019 |
           | CoreHart (non-coul chg cor):        0.00000000000000
           | Hartree                    :     1552.13736260381938 |
           | Exchange-correlation       :     -138.45132302187153 |
           | Ewald                      :     1160.26352742151812 |
           | Dij0                       :       56.58370637027360 |
           | Dijhartree                 :        0.30094385047579 |
           | Exc [AE core]              :     -350.21304487691401 |
           | Exc DC [AE core]           :     -124.22298544998094 |
           | Exc [PS core]              :      -91.61633700048503 |
           | Exc DC [PS core]           :     -108.55193835140501 |
           | Exc [Core]                 :     -250.72635480246220 |
           | Total [Sphere]             :       49.01429714678261 |
           | Total                      :     -470.14730123488630 |
           --------------------------------------------------------
           Integrated compensation chrg.:        7.17518243370469
           Integrated density           :      288.99999999999983
           Integrated spin density      :        1.00000000000019
           Integrated |spin density|    :        1.02023230962019
================================================================================

   2     0.00000018822862   -470.14730123489301  <-- CG                                 

================================= Core Density =================================
               Core den box size:   33 x  33 x  25
================================================================================
 
********************* Unconstrained **********************
********************** Ewald forces **********************
*                                                        *
* Element  Atom         Cartesian components (Eh/a)      *
* ------------------------------------------------------ *
*                       x            y            z      *
*                                                        *
*    B       1      0.00212111  -0.00125727   0.00025739 *
*    N       2     -0.00588654  -0.01661911  -0.00025317 *
*    B       3     -0.00798474  -0.00619806   0.00025751 *
*    N       4     -0.02787899  -0.02552571  -0.00025159 *
*    B       5     -0.00938048  -0.00376772   0.00025723 *
*    N       6     -0.03601826  -0.01143097  -0.00025019 *
*    B       7     -0.00005886   0.00250581   0.00025684 *
*    N       8     -0.01731891   0.00314984  -0.00024964 *
*    B       9      0.00799707   0.00361327   0.00025743 *
*    N      10      0.00005687   0.00383223  -0.00025422 *
*    B      11      0.00709823   0.00515988   0.00025748 *
*    N      12      0.00337224  -0.00191535  -0.00025408 *
*    B      13     -0.00094765  -0.00877581   0.00025758 *
*    N      14      0.00004612  -0.02947669  -0.00025301 *
*    B      15     -0.00659906  -0.01976102   0.00025903 *
*    N      16     -0.02876184  -0.08067515  -0.00024555 *
*    B      17     -0.03695850  -0.02130482   0.00026064 *
*    N      18     -0.14718304  -0.08499683  -0.00022660 *
*    B      19     -0.02045177   0.00420192   0.00025896 *
*    N      20     -0.08418692   0.01535776  -0.00024123 *
*    B      21     -0.00810767   0.00362168   0.00025705 *
*    N      22     -0.02548806   0.01475047  -0.00025311 *
*    B      23     -0.00005610  -0.00000113   0.00025711 *
*    N      24     -0.00326115  -0.00191837  -0.00025409 *
*    B      25      0.00084113  -0.00878030   0.00025755 *
*    N      26      0.00600810  -0.01661723  -0.00025325 *
*    B      27     -0.00006254  -0.03766827   0.00026083 *
*    N      28      0.02888035  -0.08064642  -0.00024480 *
*    B      29     -0.04181085  -0.12025094   0.00027929 *
*    N      30      0.00009707  -0.77458129   0.00003095 *
*    B      31     -0.12507093   0.02397362   0.00028324 *
*    N      32     -0.67076037   0.38730050  -0.00001380 *
*    B      33     -0.03266618   0.01883735   0.00026111 *
*    N      34     -0.05538151   0.06527134  -0.00024322 *
*    B      35     -0.00721679   0.00516143   0.00025759 *
*    N      36     -0.01136197   0.01346984  -0.00025302 *
*    B      37     -0.00222524  -0.00125206   0.00025740 *
*    N      38      0.00469340   0.00268837  -0.00025371 *
*    B      39      0.00649096  -0.01975730   0.00025872 *
*    N      40      0.02799320  -0.02553103  -0.00025197 *
*    B      41      0.04167026  -0.12022061   0.00027821 *
*    N      42      0.14727050  -0.08499902  -0.00022274 *
*    C      43     -0.00007606  -0.00003949  -0.00102116 *
*    N      44      0.67095331   0.38727981   0.00004228 *
*    B      45     -0.08331395   0.09625163   0.00028423 *
*    N      46      0.00004217   0.17000783  -0.00022873 *
*    B      47     -0.01389772   0.01556463   0.00025916 *
*    N      48     -0.00808005   0.03696217  -0.00025131 *
*    B      49     -0.00145355   0.00995864   0.00025755 *
*    N      50      0.00005683   0.01068567  -0.00025387 *
*    B      51      0.00786421  -0.00619437   0.00025743 *
*    N      52      0.00930909  -0.00534164  -0.00025422 *
*    B      53      0.03683942  -0.02130266   0.00025944 *
*    N      54      0.03613731  -0.01143051  -0.00025011 *
*    B      55      0.12491409   0.02397567   0.00027645 *
*    N      56      0.08431155   0.01537253  -0.00024292 *
*    B      57      0.08320840   0.09628414   0.00027773 *
*    N      58      0.05551639   0.06529334  -0.00024486 *
*    B      59     -0.00005628   0.04261099   0.00026102 *
*    N      60      0.00819465   0.03695806  -0.00025126 *
*    B      61      0.00134638   0.00996462   0.00025749 *
*    N      62     -0.00459890   0.00268945  -0.00025361 *
*    B      63     -0.00005879   0.00000123   0.00025707 *
*    N      64     -0.00919709  -0.00534385  -0.00025410 *
*    B      65      0.00927037  -0.00376177   0.00025711 *
*    N      66      0.00004614  -0.00535929  -0.00025382 *
*    B      67      0.02033156   0.00420635   0.00025810 *
*    N      68      0.01742979   0.00315370  -0.00025388 *
*    B      69      0.03256113   0.01883500   0.00026010 *
*    N      70      0.02558175   0.01474764  -0.00025300 *
*    B      71      0.01378574   0.01554677   0.00025879 *
*    N      72      0.01148040   0.01345689  -0.00025325 *
*                                                        *
**********************************************************
TOTAL:              0.00000000  -0.00000000   0.00000000
 
********************* Unconstrained **********************
***************** Local potential forces *****************
*                                                        *
* Element  Atom         Cartesian components (Eh/a)      *
* ------------------------------------------------------ *
*                       x            y            z      *
*                                                        *
*    B       1     -0.00295198   0.00173542  -0.00026914 *
*    N       2      0.00585892   0.01523583   0.00019692 *
*    B       3      0.00763573   0.00634782  -0.00026913 *
*    N       4      0.02580415   0.02531281   0.00019549 *
*    B       5      0.00933536   0.00338979  -0.00026886 *
*    N       6      0.03480338   0.00972127   0.00019417 *
*    B       7      0.00005927  -0.00346389  -0.00026854 *
*    N       8      0.01611877  -0.00249653   0.00019371 *
*    B       9     -0.00766647  -0.00338123  -0.00026910 *
*    N      10     -0.00004158  -0.00279472   0.00019815 *
*    B      11     -0.00673137  -0.00498990  -0.00026916 *
*    N      12     -0.00245288   0.00139337   0.00019795 *
*    B      13      0.00098235   0.00837064  -0.00026923 *
*    N      14     -0.00002543   0.02803283   0.00019689 *
*    B      15      0.00386052   0.01886112  -0.00027042 *
*    N      16      0.02715721   0.06858422   0.00018704 *
*    B      17      0.03605461   0.02078146  -0.00027238 *
*    N      18      0.13531025   0.07812842   0.00017384 *
*    B      19      0.01829842  -0.00612144  -0.00027023 *
*    N      20      0.07291740  -0.01071367   0.00018188 *
*    B      21      0.00777609  -0.00339113  -0.00026864 *
*    N      22      0.02426372  -0.01403517   0.00019706 *
*    B      23      0.00005354   0.00000090  -0.00026863 *
*    N      24      0.00237790   0.00139979   0.00019800 *
*    B      25     -0.00087818   0.00837543  -0.00026924 *
*    N      26     -0.00595078   0.01523248   0.00019730 *
*    B      27      0.00006126   0.03545419  -0.00027236 *
*    N      28     -0.02724068   0.06854518   0.00018804 *
*    B      29      0.02762815   0.11552005  -0.00028924 *
*    N      30     -0.00010274   0.56763834  -0.00003681 *
*    B      31      0.11388680  -0.03388317  -0.00029264 *
*    N      32      0.49159626  -0.28385554   0.00000351 *
*    B      33      0.03074641  -0.01773129  -0.00027249 *
*    N      34      0.04573128  -0.05781925   0.00018695 *
*    B      35      0.00684963  -0.00499227  -0.00026926 *
*    N      36      0.01020355  -0.01274537   0.00019692 *
*    B      37      0.00305367   0.00172734  -0.00026920 *
*    N      38     -0.00426596  -0.00245694   0.00019768 *
*    B      39     -0.00375687   0.01885577  -0.00027029 *
*    N      40     -0.02588676   0.02532346   0.00019596 *
*    B      41     -0.02749063   0.11548922  -0.00028791 *
*    N      42     -0.13535608   0.07813022   0.00017006 *
*    C      43      0.00001655   0.00006380   0.00092436 *
*    N      44     -0.49171624  -0.28378311  -0.00004320 *
*    B      45      0.08630096  -0.08161443  -0.00029406 *
*    N      46     -0.00002166  -0.15627782   0.00017492 *
*    B      47      0.01448226  -0.01274042  -0.00027072 *
*    N      48      0.00896031  -0.03504189   0.00019513 *
*    B      49      0.00175720  -0.00973251  -0.00026922 *
*    N      50     -0.00004121  -0.00981656   0.00019778 *
*    B      51     -0.00751327   0.00634298  -0.00026912 *
*    N      52     -0.00853779   0.00490558   0.00019816 *
*    B      53     -0.03593396   0.02077865  -0.00027111 *
*    N      54     -0.03489616   0.00972349   0.00019409 *
*    B      55     -0.11372770  -0.03389193  -0.00028649 *
*    N      56     -0.07300677  -0.01072947   0.00018592 *
*    B      57     -0.08620172  -0.08163729  -0.00028823 *
*    N      58     -0.04583877  -0.05784516   0.00018835 *
*    B      59      0.00005641  -0.04156715  -0.00027279 *
*    N      60     -0.00903966  -0.03504071   0.00019484 *
*    B      61     -0.00165184  -0.00973910  -0.00026910 *
*    N      62      0.00421216  -0.00245689   0.00019733 *
*    B      63      0.00005717  -0.00000184  -0.00026861 *
*    N      64      0.00846002   0.00490948   0.00019797 *
*    B      65     -0.00922496   0.00338165  -0.00026875 *
*    N      66     -0.00002487   0.00488669   0.00019768 *
*    B      67     -0.01818363  -0.00612534  -0.00026953 *
*    N      68     -0.01619266  -0.00249736   0.00019782 *
*    B      69     -0.03064525  -0.01772980  -0.00027173 *
*    N      70     -0.02431354  -0.01403063   0.00019700 *
*    B      71     -0.01437643  -0.01272742  -0.00027032 *
*    N      72     -0.01028821  -0.01272819   0.00019729 *
*                                                        *
**********************************************************
TOTAL:              0.00055293  -0.00004683  -0.00235977
 
********************* Unconstrained **********************
************** Compensation density forces ***************
*                                                        *
* Element  Atom         Cartesian components (Eh/a)      *
* ------------------------------------------------------ *
*                       x            y            z      *
*                                                        *
*    B       1     -0.00003050   0.00001805   0.00000051 *
*    N       2     -0.00000345   0.00002896   0.00000270 *
*    B       3     -0.00001163   0.00000370   0.00000051 *
[...]
*    N      72      0.00006683  -0.00004413  -0.00012902 *
*                                                        *
**********************************************************
TOTAL:              0.00016390  -0.00094449  -0.00468698
 
********************* Unconstrained **********************
****** Correction to ensure the total force is zero ******
*                                                        *
* Element  Atom         Cartesian components (Eh/a)      *
* ------------------------------------------------------ *
*                       x            y            z      *
*                                                        *
*    B       1      0.00000017   0.00001370   0.00006143 *
*    N       2      0.00000017   0.00001370   0.00006143 *
*    B       3      0.00000017   0.00001370   0.00006143 *
*    N       4      0.00000017   0.00001370   0.00006143 *
*    B       5      0.00000017   0.00001370   0.00006143 *
*    N       6      0.00000017   0.00001370   0.00006143 *
*    B       7      0.00000017   0.00001370   0.00006143 *
*    N       8      0.00000017   0.00001370   0.00006143 *
*    B       9      0.00000017   0.00001370   0.00006143 *
*    N      10      0.00000017   0.00001370   0.00006143 *
*    B      11      0.00000017   0.00001370   0.00006143 *
*    N      12      0.00000017   0.00001370   0.00006143 *
*    B      13      0.00000017   0.00001370   0.00006143 *
*    N      14      0.00000017   0.00001370   0.00006143 *
*    B      15      0.00000017   0.00001370   0.00006143 *
*    N      16      0.00000017   0.00001370   0.00006143 *
*    B      17      0.00000017   0.00001370   0.00006143 *
*    N      18      0.00000017   0.00001370   0.00006143 *
*    B      19      0.00000017   0.00001370   0.00006143 *
*    N      20      0.00000017   0.00001370   0.00006143 *
*    B      21      0.00000017   0.00001370   0.00006143 *
*    N      22      0.00000017   0.00001370   0.00006143 *
*    B      23      0.00000017   0.00001370   0.00006143 *
*    N      24      0.00000017   0.00001370   0.00006143 *
*    B      25      0.00000017   0.00001370   0.00006143 *
*    N      26      0.00000017   0.00001370   0.00006143 *
*    B      27      0.00000017   0.00001370   0.00006143 *
*    N      28      0.00000017   0.00001370   0.00006143 *
*    B      29      0.00000017   0.00001370   0.00006143 *
*    N      30      0.00000017   0.00001370   0.00006143 *
*    B      31      0.00000017   0.00001370   0.00006143 *
*    N      32      0.00000017   0.00001370   0.00006143 *
*    B      33      0.00000017   0.00001370   0.00006143 *
*    N      34      0.00000017   0.00001370   0.00006143 *
*    B      35      0.00000017   0.00001370   0.00006143 *
*    N      36      0.00000017   0.00001370   0.00006143 *
*    B      37      0.00000017   0.00001370   0.00006143 *
*    N      38      0.00000017   0.00001370   0.00006143 *
*    B      39      0.00000017   0.00001370   0.00006143 *
*    N      40      0.00000017   0.00001370   0.00006143 *
*    B      41      0.00000017   0.00001370   0.00006143 *
*    N      42      0.00000017   0.00001370   0.00006143 *
*    C      43      0.00000017   0.00001370   0.00006143 *
*    N      44      0.00000017   0.00001370   0.00006143 *
*    B      45      0.00000017   0.00001370   0.00006143 *
*    N      46      0.00000017   0.00001370   0.00006143 *
*    B      47      0.00000017   0.00001370   0.00006143 *
*    N      48      0.00000017   0.00001370   0.00006143 *
*    B      49      0.00000017   0.00001370   0.00006143 *
*    N      50      0.00000017   0.00001370   0.00006143 *
*    B      51      0.00000017   0.00001370   0.00006143 *
*    N      52      0.00000017   0.00001370   0.00006143 *
*    B      53      0.00000017   0.00001370   0.00006143 *
*    N      54      0.00000017   0.00001370   0.00006143 *
*    B      55      0.00000017   0.00001370   0.00006143 *
*    N      56      0.00000017   0.00001370   0.00006143 *
*    B      57      0.00000017   0.00001370   0.00006143 *
*    N      58      0.00000017   0.00001370   0.00006143 *
*    B      59      0.00000017   0.00001370   0.00006143 *
*    N      60      0.00000017   0.00001370   0.00006143 *
*    B      61      0.00000017   0.00001370   0.00006143 *
*    N      62      0.00000017   0.00001370   0.00006143 *
*    B      63      0.00000017   0.00001370   0.00006143 *
*    N      64      0.00000017   0.00001370   0.00006143 *
*    B      65      0.00000017   0.00001370   0.00006143 *
*    N      66      0.00000017   0.00001370   0.00006143 *
*    B      67      0.00000017   0.00001370   0.00006143 *
*    N      68      0.00000017   0.00001370   0.00006143 *
*    B      69      0.00000017   0.00001370   0.00006143 *
*    N      70      0.00000017   0.00001370   0.00006143 *
*    B      71      0.00000017   0.00001370   0.00006143 *
*    N      72      0.00000017   0.00001370   0.00006143 *
*                                                        *
**********************************************************
TOTAL:              0.00001206   0.00098674   0.00442293

********************* Unconstrained **********************
************************* Forces *************************
*                                                        *
* Element  Atom         Cartesian components (Eh/a)      *
* ------------------------------------------------------ *
*                       x            y            z      *
*                                                        *
*    B       1      0.00000691  -0.00000405   0.00000434 *
*    N       2     -0.00002485  -0.00002229   0.00000310 *
*    B       3      0.00005750  -0.00000529   0.00000663 *
*    N       4     -0.00002242  -0.00002935   0.00000772 *
*    B       5      0.00002702   0.00004988   0.00000568 *
*    N       6     -0.00003938  -0.00000586   0.00000677 *
*    B       7     -0.00000390   0.00000159   0.00000283 *
*    N       8     -0.00003865  -0.00001697  -0.00000127 *
*    B       9     -0.00000401  -0.00004236   0.00000120 *
*    N      10      0.00000513  -0.00010853   0.00000139 *
*    B      11     -0.00003291   0.00001230   0.00000118 *
*    N      12     -0.00008589   0.00005290   0.00000143 *
*    B      13     -0.00002652   0.00002611   0.00000468 *
*    N      14      0.00000116  -0.00000819   0.00000183 *
*    B      15     -0.00003820  -0.00004420   0.00000186 *
*    N      16     -0.00007901   0.00005217  -0.00000747 *
*    B      17      0.00010552   0.00006238   0.00000494 *
*    N      18      0.00007627   0.00004956  -0.00000278 *
*    B      19     -0.00006254  -0.00001124   0.00000476 *
*    N      20     -0.00000240  -0.00008995  -0.00000117 *
*    B      21      0.00001140  -0.00003950   0.00000484 *
*    N      22     -0.00000617  -0.00000204   0.00000753 *
*    B      23      0.00000109  -0.00000316   0.00000411 *
*    N      24      0.00009085   0.00005040   0.00000297 *
*    B      25      0.00003270   0.00002924   0.00000335 *
*    N      26      0.00003305  -0.00002167   0.00000036 *
*    B      27      0.00000209   0.00009595   0.00000507 *
*    N      28      0.00008120   0.00005130   0.00001581 *
*    B      29      0.00004291   0.00004140  -0.00000666 *
*    N      30      0.00000162  -0.00002703  -0.00002402 *
*    B      31      0.00004590   0.00001971  -0.00001068 *
*    N      32     -0.00003447   0.00002040  -0.00003495 *
*    B      33      0.00007597  -0.00004159   0.00000096 *
*    N      34      0.00007266   0.00004387  -0.00000626 *
*    B      35      0.00004299   0.00000919   0.00000485 *
*    N      36     -0.00000931   0.00004049  -0.00000180 *
*    B      37     -0.00000078  -0.00000088   0.00000174 *
*    N      38     -0.00003428  -0.00002106  -0.00000027 *
*    B      39      0.00004127  -0.00003803   0.00000748 *
*    N      40      0.00001799  -0.00002776  -0.00000138 *
*    B      41     -0.00004759   0.00003600   0.00000271 *
*    N      42     -0.00007700   0.00004543  -0.00000507 *
*    C      43     -0.00000245  -0.00000119  -0.00004477 *
*    N      44      0.00002469   0.00001556  -0.00002641 *
*    B      45      0.00000345  -0.00005235  -0.00001387 *
*    N      46     -0.00000362  -0.00009424  -0.00000562 *
*    B      47     -0.00001641   0.00005592   0.00000043 *
*    N      48     -0.00001820   0.00003442   0.00000127 *
*    B      49     -0.00002670  -0.00005033   0.00000268 *
*    N      50      0.00000487  -0.00015289   0.00000204 *
*    B      51     -0.00005819   0.00000235   0.00000084 *
*    N      52     -0.00012787   0.00007704   0.00000031 *
*    B      53     -0.00010118   0.00006247  -0.00000074 *
*    N      54      0.00003939  -0.00000243  -0.00000619 *
*    B      55     -0.00005600   0.00002456  -0.00000244 *
*    N      56     -0.00000294  -0.00009094   0.00000669 *
*    B      57     -0.00001234  -0.00006186   0.00000290 *
*    N      58     -0.00008052   0.00004160   0.00001718 *
*    B      59     -0.00000100  -0.00012300   0.00000204 *
*    N      60      0.00001797   0.00003209   0.00000126 *
*    B      61      0.00003204  -0.00004858   0.00000391 *
*    N      62      0.00003702  -0.00002223   0.00000395 *
*    B      63      0.00000373  -0.00000021   0.00000406 *
*    N      64      0.00013291   0.00007387   0.00000435 *
*    B      65     -0.00002939   0.00005011   0.00000261 *
*    N      66     -0.00000023   0.00004248   0.00000246 *
*    B      67      0.00005517  -0.00000952   0.00000354 *
*    N      68      0.00003484  -0.00001704   0.00000390 *
*    B      69     -0.00008261  -0.00004917   0.00000981 *
*    N      70      0.00000335   0.00000009  -0.00000504 *
*    B      71      0.00002168   0.00005214   0.00000904 *
*    N      72      0.00000560   0.00003203   0.00000147 *
*                                                        *
**********************************************************
* TOTAL:           -0.00000000   0.00000000  -0.00000000 *
**********************************************************
 
 
***********************************************************
********** Summary of Forces (values in Eh/a) *************
*                                                         *
* ---------------------- Minimum ------------------------ *
* Atom:        37, |F|min =    0.00000210                 *
* Components:     Fx|min       Fy|min       Fz|min        *
*              -0.00000078  -0.00000088   0.00000174      *
*                                                         *
* ---------------------- Maximum ------------------------ *
* Atom:        50, |F|max =    0.00015298                 *
* Components:     Fx|max       Fy|max       Fz|max        *
*               0.00000487  -0.00015289   0.00000204      *
*                                                         *
* ---------------- Root Mean Square Force --------------- *
*                  |F|rms =    0.00006970                 *
* Components:     Fx|rms       Fy|rms       Fz|rms        *
*               0.00004843   0.00004921   0.00000952      *
***********************************************************
 

------------------------------ TIMING INFORMATION ------------------------------
AVERAGE TIME:    2470.017s on     16 proc(s)                                    
TOTAL TIME:      2470.017s on     16 proc(s)                                    
==================== AVERAGE TIMINGS FROM ALL PROCS (CUMULATIVE) =====================
|| TAG                                         #calls     cpu time   %total  Gflops ||
|| linalg_invert_sym_matrix                   :     5        0.00s   0.000%  ------ || (1 procs only)
|| onetep.F90 main loop imbalance             :     1        0.00s   0.000%  ------ ||
|| hash_table_free                            :   111        0.00s   0.000%  ------ ||
|| sparse_blacstospam3_real_fast_imbal        :     8        0.00s   0.000%  ------ ||
|| sparse_spam3toblacs_real_fast_imbal        :     6        0.00s   0.000%  ------ ||
|| onetep.F90 final imbalance                 :     1        0.00s   0.000%  ------ ||
|| sparse_spam3toblacs_real_fast_B2           :    96        0.00s   0.000%  ------ ||
|| density_fftbox_interp_mult_imbal           : 22920        0.00s   0.000%  ------ ||
|| ewald_calculate_forces_realspace           :    15        0.00s   0.000%  ------ ||
|| sparse_spam3toblacs_real_fast_B1           :    96        0.01s   0.000%  ------ ||
|| sparse_set_to_garbage                      :   774        0.01s   0.000%  ------ ||
|| sparse_spam3toblacs_real_fast              :     6        0.01s   0.001%  ------ ||
|| linalg_dgemv                               :    32        0.02s   0.001%  ------ ||
|| sparse_blacstospam3_real_fast              :     8        0.02s   0.001%  ------ ||
|| paw_dij_hartree                            :   611        0.03s   0.001%  ------ ||
|| restart_kernel_read                        :    13        0.04s   0.002%  ------ ||
|| paw_tcore_hartree_on_grid                  :    15        0.06s   0.002%  ------ ||
|| ewald_calculate_energy                     :    15        0.06s   0.003%  ------ ||
|| paw_sphere_density_on_grid                 :     1        0.07s   0.003%  ------ ||
|| pseudo_make_structure_factor               :    15        0.08s   0.003%  ------ ||
|| ewald_calculate_forces_recipspace          :    15        0.13s   0.005%  ------ ||
|| ewald_calculate_forces                     :    15        0.14s   0.006%  ------ ||
|| dense_eigensolve                           :     2        0.18s   0.007%  ------ ||
|| augmentation_density_forces                :    15        0.21s   0.009%  ------ ||
|| paw_tcore_hartree_calc_forces              :    15        0.25s   0.010%  ------ ||
|| paw_tcore_density                          :    15        0.27s   0.011%  ------ ||
|| sparse_init                                :    15        0.36s   0.015%  ------ ||
|| basis_extract_function_from_box            :  4050        0.43s   0.017%  ------ ||
|| restart_kernel_write                       :    55        0.43s   0.017%  ------ ||
|| palser_mano_kernel_optimise_spam3_embed    :     4        0.47s   0.019%  ------ ||
|| sparse_embed_array_hotelling_invert        :    96        0.79s   0.032%  ------ ||
|| ngwfs_initialise_from_radial               :     2        0.83s   0.034%  ------ ||
|| eigenstates_calculate                      :     1        1.00s   0.041%  ------ ||
|| paw_nlcc_calculate_forces                  :    15        1.01s   0.041%  ------ ||
|| paw_dataset_init                           :     3        1.31s   0.053%  ------ ||
|| integrals_grad_spam3                       :    15        1.65s   0.067%  ------ ||
|| nonsc_forces_ngwfs_calc                    :    15        1.65s   0.067%  ------ ||
|| density_init_guess_real                    :     4        1.92s   0.078%  ------ ||
|| hartree_on_grid_single                     :   559        2.28s   0.092%  ------ ||
|| energy_and_force_init_cell                 :     1        2.78s   0.113%  ------ ||
|| sparse_trace                               : 18823        3.31s   0.134%  ------ ||
|| kernel_purify                              :   844        4.17s   0.169%  ------ ||
|| kernel_fix                                 :   265        4.59s   0.186%  ------ ||
|| lnv_gradient_norm                          :   265        4.71s   0.191%  ------ ||
|| ngwf_gradient_coeffs                       :    53        5.87s   0.238%  ------ ||
|| myself                                     :  4815        6.25s   0.253% 276.477 ||
|| restart_ngwfs_tightbox_input               :    13        7.29s   0.295%  ------ ||
|| augmentation_screen_dij_spam3              :   558        7.33s   0.297%  ------ ||
|| basis_copy_function_to_box                 : 33156        8.03s   0.325%  ------ ||
|| paw_species_calc_proj_prec_mat             :    15        8.54s   0.346%  ------ ||
|| cell_grid_deposit_box_real                 : 28935        8.58s   0.347%  ------ ||
|| fourier_apply_cell_backward                :  5158        9.53s   0.386%  57.260 ||
|| properties_calculate                       :     1       10.74s   0.435%  ------ ||
|| fourier_apply_cell_forward                 :  5158       10.76s   0.436%  50.711 ||
|| function_ops_brappd_ketppd_spam3           :    96       11.13s   0.451%  ------ ||
|| cell_grid_extract_box_real                 : 18659       12.34s   0.499%  ------ ||
|| aug_density_on_grid_spam3                  :   573       14.27s   0.578%  ------ ||
|| projectors_func_grad_ovlp_box_spam3        :    45       23.71s   0.960%  ------ ||
|| sparse_product                             : 30733       23.88s   0.967%  ------ ||
|| restart_ngwfs_tightbox_output              :    41       23.88s   0.967%  ------ ||
|| aug_nl_calculate_forces                    :    15       25.78s   1.044%  ------ ||
|| hamiltonian_energy_components              :    15       26.56s   1.075%  ------ ||
|| xc_energy_potential                        :   573       28.76s   1.165%  ------ ||
|| density_fftbox_deposit_to_cell             : 22920       28.77s   1.165%  ------ ||
|| projectors_init_fftbox_recip               :   580       34.10s   1.380%  ------ ||
|| integrals_kinetic_spam3                    :    96       36.93s   1.495%  ------ ||
|| aug_nonlocal_mat_spam3_embed_array         :   543       43.54s   1.763%  ------ ||
|| paw_dij_xc                                 :   611       46.08s   1.866%  ------ ||
|| projectors_func_ovlp_box_spam3             :    96       48.06s   1.946%  ------ ||
|| fourier_filter                             :  6732       59.10s   2.393%  ------ ||
|| forces_calculate                           :    15       76.62s   3.102%  ------ ||
|| fourier_interpolate                        :  6732      103.77s   4.201%  ------ ||
|| projectors_gradient_batch                  :   212      123.81s   5.012%  ------ ||
|| basis_dot_function_with_box                : 3.843M     155.93s   6.313%  ------ ||
|| projectors_grad_precond_batch              :   212      184.93s   7.487%  ------ ||
|| integrals_locpot_mat_els_batch             :  1072      219.57s   8.890%  ------ ||
|| fourier_apply_box                          : 110.4k     237.12s   9.600% 558.939 ||
|| potential_apply_to_ngwf_batch              :  1072      243.93s   9.876%  ------ ||
|| fourier_interpolate_product                : 20628      297.45s  12.042%  ------ ||
|| density_fftbox_interpolate_multiply        : 22920      343.70s  13.915%  ------ ||
|| density_batch_row_sums                     :  2292      391.60s  15.854%  ------ ||
|| ngwf_gradient_build_batch                  :   212      395.69s  16.020%  ------ ||
|| basis_add_function_to_box                  : 8.139M     400.67s  16.222%  ------ ||
|| density_batch_interp_deposit               :  2292      457.89s  18.538%  ------ ||
|| integrals_locpot_dbl_grid                  :   536      464.13s  18.790%  ------ ||
|| ngwf_gradient_batch                        :   212      727.12s  29.438%  ------ ||
|| ngwf_gradient_lnv                          :    53      747.63s  30.268%  ------ ||
|| density_on_dbl_grid                        :  1146      861.71s  34.887%  ------ ||
|| hamiltonian_lhxc_calculate                 :   541      911.28s  36.894%  ------ ||
|| lnv_denskernel_optimise_cg                 :    53     1333.85s  54.002%  ------ ||
|| ngwf_cg_optimise                           :    15     2333.87s  94.488%  ------ ||
|| energy_and_forces                          :    15     2459.44s  99.572%  ------ ||
|| total_time                                 :     1     2470.02s 100.000%  ------ ||
======================================================================================
Overhead of generating timer report: 
- 0 ms averaging over threads,
- 1 ms ensuring consistency across MPI ranks,
- 1 ms printing in order.

Job completed: 16-05-2024 22:47 (+0100)

onetep_launcher: ONETEP seems to have finished correctly (zero exit code).
                 Brought to you by PID 98144 on nid005208.
