==================================================================================
It's Sat 26 Apr 2025 10:14:50 AM BST.
*** Starting onetep_launcher (node nid001170, PIDs 119427 119428 119429 119430 119431 119432)...
    - ONETEP arguments: Cr2I6_bilayer_HT_AFM_FM_nSP.dat
    - Current directory: /mnt/lustre/a2fs-work3/work/e89/e89/phsmea/CrI3_onetep_U/U_2.97/HT_AFM/HT_AFM_FM_J/nsp
    - Launcher executable directory: /mnt/lustre/a2fs-work3/work/e89/e89/phsmea/CrI3_onetep_U/U_2.97/HT_AFM/HT_AFM_FM_J/nsp
    - (-e) ONETEP executable specified through command-line: /work/e89/e89/phsmea/onetep.archer2_2024_cray_2
      ... trying /work/e89/e89/phsmea/onetep.archer2_2024_cray_2
          -> looks OK
*** Setting up environment...
    - (-s) Process stack size: unlimited
    - (-t) OMP_NUM_THREADS: 16
    - (-o) OMP_STACKSIZE: 64M
    - (-c) Maximum core file size: 2048000
    - (-d) decfort_dump_flag: n
    - (-m) I_MPI_OFA_TRANSLATION_CACHE: 0
    - (-m) I_MPI_DAPL_TRANSLATION_CACHE: 0
    - (-m) I_MPI_DAPL_UD_TRANSLATION_CACHE: 0
*** Starting ONETEP...
    - /work/e89/e89/phsmea/onetep.archer2_2024_cray_2 Cr2I6_bilayer_HT_AFM_FM_nSP.dat
=================================================================================
_________________________________________________________________________________
 +---------------------------------------------------------------+
 |                                                               |
 |        ####### #     # ####### ####### ####### ######         |
 |        #     # ##    # #          #    #       #     #        |
 |        #     # # #   # #          #    #       #     #        |
 |        #     # #  #  # #####      #    #####   ######         |
 |        #     # #   # # #          #    #       #              |
 |        #     # #    ## #          #    #       #              |
 |        ####### #     # #######    #    ####### #              |
 |                                                               |
 |        Linear-Scaling Ab Initio Total Energy Program          |
 |                                                               |
 |          Release for academic collaborators of ODG            |
 |                                             Version 7.3.0     |
 | Remote: git@github.com:Miesaz/onetep_mea.git                  |
 | Local branch: master                                          |
 | Commit ID: 4af45e89288c8df5499704252eec3e032ee3d0c8           |
 | Date: Tue Aug 6 11:28:44 2024 +0100                           |
 | Locally modified files:                                       |
 |   src/hubbard_build_mod.F90                                   |
 |   src/services_mod.F90                                        |
 |                                                               |
 +---------------------------------------------------------------+
 |                                                               |
 |  Authors:                                                     |
 |  Jacek Dziedzic, Peter D. Haynes, Nicholas D. M. Hine,        |
 |  Arash A. Mostofi, Mike C. Payne and Chris-Kriton Skylaris    |
 |                                                               |
 |  Contributors:                                                |
 |  J. Aarons, L. Andrinopoulos, P. W. Avraam, R. A. Bell,       |
 |  A. Bhandari, G. A. Bramley, R. J. Charlton, S. J. Clark,     |
 |  R. J. Clements, G. C. Constantinescu, F. Corsetti,           |
 |  N. Corsini, O. Dieguez, S. M. M. Dubois, K. K. B. Duff,      |
 |  J. M. Escartin, M. Escobar Azor, A. Greco,                   |
 |  H. Helal, Q. O. Hill, L. P. Lee, J.-H. Li,                   |
 |  T. Li, E. B. Linscott, G. Moynihan, D. D. O`Regan,           |
 |  O. K. Okan, E. Parkinson, M. J. S. Phipps,                   |
 |  C. J. Pickard, J. C. A. Prentice, M. I. J. Probert,          |
 |  L. E. Ratcliff, M. Robinson, A. Ruiz Serrano,                |
 |  M. dos Santos Dias, J. S. Spencer, E. W. Tait,               |
 |  G. Teobaldi, D. Turban, V. Vitale, K. A. Wilkinson,          |
 |  C. Weber, J. C. Womack, Chengcheng Xiao, N. Yeung,           |
 |  and T. J. Zuehlsdorff.                                       |
 |                                                               |
 |                                   Copyright (c) 2004-2025     |
 |                                                               |
 |  Please cite:                                                 |
 |  "The ONETEP linear-scaling density functional theory program"|
 |   J. Chem. Phys. 152(17) 174111 (2020)                        |
 |                                                               |
 |          in all publications arising from your use of ONETEP. |
 |                                                               |
 +---------------------------------------------------------------+
 |                                                               |
 |   ONETEP is based on developments described in the following  |
 |   publications:                                               |
 |                                                               |
 |  "Nonorthogonal generalized Wannier function pseudopotential  |
 |   plane-wave method".                                         |
 |   C.-K. Skylaris, A. A. Mostofi, P. D. Haynes, O. Dieguez,    |
 |   M. C. Payne.                                                |
 |   Phys. Rev. B 66 035119 (2002).                              |
 |                                                               |
 |  "Preconditioned iterative minimization for linear-scaling    |
 |   electronic structure calculations".                         |
 |   A. A. Mostofi, P. D. Haynes, C.-K. Skylaris, M. C. Payne.   |
 |   J. Chem. Phys. 119(17), pp.8842-8848 (2003).                |
 |                                                               |
 |  "Total-energy calculations on a real space grid with         |
 |   localized functions and a plane-wave basis".                |
 |   A. A. Mostofi, C.-K. Skylaris, P. D. Haynes, M. C. Payne.   |
 |   Comput. Phys. Commun. 147, pp.788-802 (2002).               |
 |                                                               |
 |  "Accurate kinetic energy evaluation in electronic structure  |
 |   calculations with localized functions on real space grids"  |
 |   C.-K. Skylaris, A. A. Mostofi, P. D. Haynes, C. J. Pickard, |
 |   M. C. Payne.                                                |
 |   Comput. Phys. Commun. 140, pp.315-322 (2001).               |
 |                                                               |
 |  "Accurate ionic forces and geometry optimization in linear-  |
 |   scaling density-functional theory with local orbitals"      |
 |   N. D. M. Hine, M. Robinson, P. D. Haynes, C.-K. Skylaris,   |
 |   M. C. Payne, and A. A. Mostofi.                             |
 |   Phys. Rev. B 83 195102 (2011).                              |
 |                                                               |
 +---------------------------------------------------------------+

Job started: 26-04-2025 10:14 (+0100)
 
Reading parameters from file "Cr2I6_bilayer_HT_AFM_FM_nSP.dat" ...... done

If your calculation crashes here, before "Checking processes and threads..."
is displayed, then your stack size is insufficient.
If so, use "ulimit -s unlimited" at runtime.
You can disable this check with "check_stack_size F".

Checking processes and threads...
      Default threads: 16
   Running with 150 MPI processes.
   There are 6 MPI processes running on the same node as the root process.
   Each MPI process is using: 
               1 threads for simulation cell FFTs.
               1 threads for threaded FFT box operations.
              16 threads for loops over batched FFT box operations.
              16 threads in other parallel regions.
   MPI Interface: S1 (use mpi_f08) (-DMPI -DUSE_MPI_F08).
   MPI_ASYNC_PROTECTS_NONBLOCKING: Yes. MPI_SUBARRAYS_SUPPORTED: Yes.
   FFTW Interface: OMP-capable and MODERN. (-DUSE_MODERN_FFTW specified).
   GPU Interface: None.
   GPU FFT Backend: None.
... done

Basic input checks...... done

Reading geometry and species blocks from file "Cr2I6_bilayer_HT_AFM_FM_nSP.dat" ...... done


--------------------------------------------------------------------------------
---------------------------------- INPUT FILE ----------------------------------
--------------------------------------------------------------------------------

charge : 0                                                                      
cutoff_energy : 1000 eV                                                         
delta_e_conv : F                                                                
do_properties : T                                                               
edft : F                                                                        
edft_init_maxit : 15                                                            
elec_energy_tol : 1e-07 Ha                                                      
fine_grid_scale : 4                                                             
forces_output_detail : VERBOSE                                                  
MAXIT_LNV     : 15                                                              
MINIT_LNV     : 5                                                               
maxit_ngwf_cg : 100                                                             
ngwf_threshold_orig : 1e-06                                                     
ngwfs_spin_polarized : F                                                        
output_detail : NORMAL                                                          
paw : T                                                                         
read_denskern : F                                                               
read_hamiltonian : F                                                            
read_tightbox_ngwfs : F                                                         
spin : 432                                                                      
spin_polarized : T                                                              
task : SinglePoint                                                              
write_denskern : T                                                              
write_forces : T                                                                
write_hamiltonian : T                                                           
write_tightbox_ngwfs : T                                                        
xc_functional : PBE                                                             
%BLOCK LATTICE_CART                                                             
ang                                                                             
41.261892132       0.000000000000000        0.000000000000000                   
-20.630946066       35.733846792             0.000000000000000                  
0.000000000000000   0.0000000000000000       27.507928088                       
%ENDBLOCK LATTICE_CART                                                          
%BLOCK POSITIONS_ABS                                                            
ang                                                                             
Cr       5.73012301       1.98615267      15.61475195                           
Cr       2.29163200       3.96948846      15.61475241                           
I        6.71804295      -0.00001318      14.06395847                           
I        3.51661508       2.12334657      14.07089707                           
I        0.07814689       3.83230774      14.07089707                           
I        4.74445508      -0.00001140      17.15723785                           
I        4.50489604       3.83201918      17.15707434                           
I        1.06642478       2.12363336      17.15707434                           
Cr      3.43917878       1.98613277       9.03123330                            
Cr      0.00068777       3.96950836       9.03123376                            
I        4.42486276      -0.00001318       7.48874545                           
I        1.22590088       2.12363241       7.48890841                           
I       -2.21256731       3.83202190       7.48890841                           
I        2.45126709      -0.00001140      10.58202506                           
I        2.21418512       3.83230199      10.57507890                           
I       -1.22428614       2.12335055      10.57507890                           
Cr       2.29163200       7.94179381      15.61475195                           
Cr      -1.14685901       9.92512959      15.61475241                           
I        3.27955194       5.95562795      14.06395847                           
I        0.07812407       8.07898770      14.07089707                           
I       -3.36034412       9.78794887      14.07089707                           
I        1.30596407       5.95562973      17.15723785                           
I        1.06640503       9.78766031      17.15707434                           
I       -2.37206623       8.07927449      17.15707434                           
Cr      0.00068777       7.94177390       9.03123330                            
Cr     -3.43780324       9.92514949       9.03123376                            
I        0.98637175       5.95562795       7.48874545                           
I       -2.21259013       8.07927354       7.48890841                           
I       -5.65105832       9.78766304       7.48890841                           
I       -0.98722392       5.95562973      10.58202506                           
I       -1.22430589       9.78794313      10.57507890                           
I       -4.66277715       8.07899168      10.57507890                           
Cr      -1.14685901      13.89743494      15.61475195                           
Cr      -4.58535002      15.88077072      15.61475241                           
I       -0.15893907      11.91126908      14.06395847                           
I       -3.36036694      14.03462883      14.07089707                           
I       -6.79883513      15.74359001      14.07089707                           
I       -2.13252694      11.91127086      17.15723785                           
I       -2.37208598      15.74330145      17.15707434                           
I       -5.81055724      14.03491562      17.15707434                           
Cr     -3.43780324      13.89741504       9.03123330                            
Cr     -6.87629425      15.88079062       9.03123376                            
I       -2.45211926      11.91126908       7.48874545                           
I       -5.65108114      14.03491467       7.48890841                           
I       -9.08954933      15.74330417       7.48890841                           
I       -4.42571493      11.91127086      10.58202506                           
I       -4.66279691      15.74358426      10.57507890                           
I       -8.10126817      14.03463281      10.57507890                           
Cr      -4.58535002      19.85307607      15.61475195                           
Cr      -8.02384103      21.83641185      15.61475241                           
I       -3.59743008      17.86691022      14.06395847                           
I       -6.79885795      19.99026996      14.07089707                           
I      -10.23732614      21.69923114      14.07089707                           
I       -5.57101795      17.86691200      17.15723785                           
I       -5.81057699      21.69894258      17.15707434                           
I       -9.24904825      19.99055675      17.15707434                           
Cr     -6.87629425      19.85305617       9.03123330                            
Cr    -10.31478526      21.83643175       9.03123376                            
I       -5.89061027      17.86691022       7.48874545                           
I       -9.08957216      19.99055580       7.48890841                           
I      -12.52804035      21.69894530       7.48890841                           
I       -7.86420594      17.86691200      10.58202506                           
I       -8.10128792      21.69922539      10.57507890                           
I      -11.53975918      19.99027394      10.57507890                           
Cr      -8.02384103      25.80871720      15.61475195                           
Cr     -11.46233204      27.79205298      15.61475241                           
I       -7.03592109      23.82255135      14.06395847                           
I      -10.23734897      25.94591110      14.07089707                           
I      -13.67581716      27.65487227      14.07089707                           
I       -9.00950896      23.82255313      17.15723785                           
I       -9.24906800      27.65458371      17.15707434                           
I      -12.68753926      25.94619789      17.15707434                           
Cr    -10.31478526      25.80869730       9.03123330                            
Cr    -13.75327627      27.79207289       9.03123376                            
I       -9.32910128      23.82255135       7.48874545                           
I      -12.52806317      25.94619693       7.48890841                           
I      -15.96653136      27.65458643       7.48890841                           
I      -11.30269695      23.82255313      10.58202506                           
I      -11.53977893      27.65486652      10.57507890                           
I      -14.97825019      25.94591507      10.57507890                           
Cr     -11.46233205      31.76435833      15.61475195                           
Cr     -14.90082306      33.74769412      15.61475241                           
I      -10.47441210      29.77819248      14.06395847                           
I      -13.67583998      31.90155223      14.07089707                           
I      -17.11430817      33.61051340      14.07089707                           
I      -12.44799997      29.77819426      17.15723785                           
I      -12.68755901      33.61022484      17.15707434                           
I      -16.12603027      31.90183902      17.15707434                           
Cr    -13.75327627      31.76433843       9.03123330                            
Cr    -17.19176728      33.74771402       9.03123376                            
I      -12.76759229      29.77819248       7.48874545                           
I      -15.96655418      31.90183807       7.48890841                           
I      -19.40502237      33.61022756       7.48890841                           
I      -14.74118796      29.77819426      10.58202506                           
I      -14.97826994      33.61050765      10.57507890                           
I      -18.41674120      31.90155621      10.57507890                           
Cr      12.60710503       1.98615267      15.61475195                           
Cr       9.16861402       3.96948846      15.61475241                           
I       13.59502497      -0.00001318      14.06395847                           
I       10.39359710       2.12334657      14.07089707                           
I        6.95512891       3.83230774      14.07089707                           
I       11.62143710      -0.00001140      17.15723785                           
I       11.38187806       3.83201918      17.15707434                           
I        7.94340680       2.12363336      17.15707434                           
Cr     10.31616080       1.98613277       9.03123330                            
Cr      6.87766979       3.96950836       9.03123376                            
I       11.30184479      -0.00001318       7.48874545                           
I        8.10288290       2.12363241       7.48890841                           
I        4.66441471       3.83202190       7.48890841                           
I        9.32824912      -0.00001140      10.58202506                           
I        9.09116714       3.83230199      10.57507890                           
I        5.65269588       2.12335055      10.57507890                           
Cr       9.16861402       7.94179381      15.61475195                           
Cr       5.73012301       9.92512959      15.61475241                           
I       10.15653396       5.95562795      14.06395847                           
I        6.95510609       8.07898770      14.07089707                           
I        3.51663790       9.78794887      14.07089707                           
I        8.18294609       5.95562973      17.15723785                           
I        7.94338705       9.78766031      17.15707434                           
I        4.50491579       8.07927449      17.15707434                           
Cr      6.87766979       7.94177390       9.03123330                            
Cr      3.43917878       9.92514949       9.03123376                            
I        7.86335378       5.95562795       7.48874545                           
I        4.66439189       8.07927354       7.48890841                           
I        1.22592370       9.78766304       7.48890841                           
I        5.88975810       5.95562973      10.58202506                           
I        5.65267613       9.78794313      10.57507890                           
I        2.21420487       8.07899168      10.57507890                           
Cr       5.73012301      13.89743494      15.61475195                           
Cr       2.29163200      15.88077072      15.61475241                           
I        6.71804295      11.91126908      14.06395847                           
I        3.51661508      14.03462883      14.07089707                           
I        0.07814689      15.74359001      14.07089707                           
I        4.74445508      11.91127086      17.15723785                           
I        4.50489604      15.74330145      17.15707434                           
I        1.06642478      14.03491562      17.15707434                           
Cr      3.43917878      13.89741504       9.03123330                            
Cr      0.00068777      15.88079062       9.03123376                            
I        4.42486276      11.91126908       7.48874545                           
I        1.22590088      14.03491467       7.48890841                           
I       -2.21256731      15.74330417       7.48890841                           
I        2.45126709      11.91127086      10.58202506                           
I        2.21418512      15.74358426      10.57507890                           
I       -1.22428614      14.03463281      10.57507890                           
Cr       2.29163200      19.85307607      15.61475195                           
Cr      -1.14685901      21.83641185      15.61475241                           
I        3.27955194      17.86691022      14.06395847                           
I        0.07812407      19.99026996      14.07089707                           
I       -3.36034412      21.69923114      14.07089707                           
I        1.30596407      17.86691200      17.15723785                           
I        1.06640503      21.69894258      17.15707434                           
I       -2.37206623      19.99055675      17.15707434                           
Cr      0.00068777      19.85305617       9.03123330                            
Cr     -3.43780324      21.83643175       9.03123376                            
I        0.98637175      17.86691022       7.48874545                           
I       -2.21259013      19.99055580       7.48890841                           
I       -5.65105832      21.69894530       7.48890841                           
I       -0.98722392      17.86691200      10.58202506                           
I       -1.22430589      21.69922539      10.57507890                           
I       -4.66277715      19.99027394      10.57507890                           
Cr      -1.14685901      25.80871720      15.61475195                           
Cr      -4.58535002      27.79205298      15.61475241                           
I       -0.15893907      23.82255135      14.06395847                           
I       -3.36036694      25.94591110      14.07089707                           
I       -6.79883513      27.65487227      14.07089707                           
I       -2.13252694      23.82255313      17.15723785                           
I       -2.37208598      27.65458371      17.15707434                           
I       -5.81055724      25.94619789      17.15707434                           
Cr     -3.43780324      25.80869730       9.03123330                            
Cr     -6.87629425      27.79207289       9.03123376                            
I       -2.45211926      23.82255135       7.48874545                           
I       -5.65108114      25.94619693       7.48890841                           
I       -9.08954933      27.65458643       7.48890841                           
I       -4.42571493      23.82255313      10.58202506                           
I       -4.66279691      27.65486652      10.57507890                           
I       -8.10126817      25.94591507      10.57507890                           
Cr      -4.58535002      31.76435833      15.61475195                           
Cr      -8.02384103      33.74769412      15.61475241                           
I       -3.59743008      29.77819248      14.06395847                           
I       -6.79885795      31.90155223      14.07089707                           
I      -10.23732614      33.61051340      14.07089707                           
I       -5.57101795      29.77819426      17.15723785                           
I       -5.81057699      33.61022484      17.15707434                           
I       -9.24904825      31.90183902      17.15707434                           
Cr     -6.87629425      31.76433843       9.03123330                            
Cr    -10.31478526      33.74771402       9.03123376                            
I       -5.89061027      29.77819248       7.48874545                           
I       -9.08957216      31.90183807       7.48890841                           
I      -12.52804035      33.61022756       7.48890841                           
I       -7.86420594      29.77819426      10.58202506                           
I       -8.10128792      33.61050765      10.57507890                           
I      -11.53975918      31.90155621      10.57507890                           
Cr      19.48408705       1.98615267      15.61475195                           
Cr      16.04559604       3.96948846      15.61475241                           
I       20.47200700      -0.00001318      14.06395847                           
I       17.27057912       2.12334657      14.07089707                           
I       13.83211093       3.83230774      14.07089707                           
I       18.49841912      -0.00001140      17.15723785                           
I       18.25886009       3.83201918      17.15707434                           
I       14.82038883       2.12363336      17.15707434                           
Cr     17.19314283       1.98613277       9.03123330                            
Cr     13.75465182       3.96950836       9.03123376                            
I       18.17882681      -0.00001318       7.48874545                           
I       14.97986492       2.12363241       7.48890841                           
I       11.54139673       3.83202190       7.48890841                           
I       16.20523114      -0.00001140      10.58202506                           
I       15.96814916       3.83230199      10.57507890                           
I       12.52967790       2.12335055      10.57507890                           
Cr      16.04559604       7.94179381      15.61475195                           
Cr      12.60710503       9.92512959      15.61475241                           
I       17.03351599       5.95562795      14.06395847                           
I       13.83208811       8.07898770      14.07089707                           
I       10.39361992       9.78794887      14.07089707                           
I       15.05992811       5.95562973      17.15723785                           
I       14.82036907       9.78766031      17.15707434                           
I       11.38189781       8.07927449      17.15707434                           
Cr     13.75465181       7.94177390       9.03123330                            
Cr     10.31616080       9.92514949       9.03123376                            
I       14.74033580       5.95562795       7.48874545                           
I       11.54137391       8.07927354       7.48890841                           
I        8.10290572       9.78766304       7.48890841                           
I       12.76674013       5.95562973      10.58202506                           
I       12.52965815       9.78794313      10.57507890                           
I        9.09118689       8.07899168      10.57507890                           
Cr      12.60710503      13.89743494      15.61475195                           
Cr       9.16861402      15.88077072      15.61475241                           
I       13.59502497      11.91126908      14.06395847                           
I       10.39359710      14.03462883      14.07089707                           
I        6.95512891      15.74359001      14.07089707                           
I       11.62143710      11.91127086      17.15723785                           
I       11.38187806      15.74330145      17.15707434                           
I        7.94340680      14.03491562      17.15707434                           
Cr     10.31616080      13.89741504       9.03123330                            
Cr      6.87766979      15.88079062       9.03123376                            
I       11.30184479      11.91126908       7.48874545                           
I        8.10288290      14.03491467       7.48890841                           
I        4.66441471      15.74330417       7.48890841                           
I        9.32824912      11.91127086      10.58202506                           
I        9.09116714      15.74358426      10.57507890                           
I        5.65269588      14.03463281      10.57507890                           
Cr       9.16861402      19.85307607      15.61475195                           
Cr       5.73012301      21.83641185      15.61475241                           
I       10.15653396      17.86691022      14.06395847                           
I        6.95510609      19.99026996      14.07089707                           
I        3.51663790      21.69923114      14.07089707                           
I        8.18294609      17.86691200      17.15723785                           
I        7.94338705      21.69894258      17.15707434                           
I        4.50491579      19.99055675      17.15707434                           
Cr      6.87766979      19.85305617       9.03123330                            
Cr      3.43917878      21.83643175       9.03123376                            
I        7.86335378      17.86691022       7.48874545                           
I        4.66439189      19.99055580       7.48890841                           
I        1.22592370      21.69894530       7.48890841                           
I        5.88975810      17.86691200      10.58202506                           
I        5.65267613      21.69922539      10.57507890                           
I        2.21420487      19.99027394      10.57507890                           
Cr       5.73012301      25.80871720      15.61475195                           
Cr       2.29163200      27.79205298      15.61475241                           
I        6.71804295      23.82255135      14.06395847                           
I        3.51661508      25.94591110      14.07089707                           
I        0.07814689      27.65487227      14.07089707                           
I        4.74445508      23.82255313      17.15723785                           
I        4.50489604      27.65458371      17.15707434                           
I        1.06642478      25.94619789      17.15707434                           
Cr      3.43917878      25.80869730       9.03123330                            
Cr      0.00068777      27.79207289       9.03123376                            
I        4.42486276      23.82255135       7.48874545                           
I        1.22590088      25.94619693       7.48890841                           
I       -2.21256731      27.65458643       7.48890841                           
I        2.45126709      23.82255313      10.58202506                           
I        2.21418512      27.65486652      10.57507890                           
I       -1.22428614      25.94591507      10.57507890                           
Cr       2.29163200      31.76435833      15.61475195                           
Cr      -1.14685901      33.74769412      15.61475241                           
I        3.27955194      29.77819248      14.06395847                           
I        0.07812407      31.90155223      14.07089707                           
I       -3.36034412      33.61051340      14.07089707                           
I        1.30596407      29.77819426      17.15723785                           
I        1.06640503      33.61022484      17.15707434                           
I       -2.37206623      31.90183902      17.15707434                           
Cr      0.00068777      31.76433843       9.03123330                            
Cr     -3.43780324      33.74771402       9.03123376                            
I        0.98637175      29.77819248       7.48874545                           
I       -2.21259013      31.90183807       7.48890841                           
I       -5.65105832      33.61022756       7.48890841                           
I       -0.98722392      29.77819426      10.58202506                           
I       -1.22430589      33.61050765      10.57507890                           
I       -4.66277715      31.90155621      10.57507890                           
Cr      26.36106908       1.98615267      15.61475195                           
Cr      22.92257807       3.96948846      15.61475241                           
I       27.34898902      -0.00001318      14.06395847                           
I       24.14756114       2.12334657      14.07089707                           
I       20.70909295       3.83230774      14.07089707                           
I       25.37540115      -0.00001140      17.15723785                           
I       25.13584211       3.83201918      17.15707434                           
I       21.69737085       2.12363336      17.15707434                           
Cr     24.07012485       1.98613277       9.03123330                            
Cr     20.63163384       3.96950836       9.03123376                            
I       25.05580883      -0.00001318       7.48874545                           
I       21.85684694       2.12363241       7.48890841                           
I       18.41837875       3.83202190       7.48890841                           
I       23.08221316      -0.00001140      10.58202506                           
I       22.84513118       3.83230199      10.57507890                           
I       19.40665992       2.12335055      10.57507890                           
Cr      22.92257806       7.94179381      15.61475195                           
Cr      19.48408705       9.92512959      15.61475241                           
I       23.91049801       5.95562795      14.06395847                           
I       20.70907013       8.07898770      14.07089707                           
I       17.27060194       9.78794887      14.07089707                           
I       21.93691014       5.95562973      17.15723785                           
I       21.69735110       9.78766031      17.15707434                           
I       18.25887984       8.07927449      17.15707434                           
Cr     20.63163384       7.94177390       9.03123330                            
Cr     17.19314283       9.92514949       9.03123376                            
I       21.61731782       5.95562795       7.48874545                           
I       18.41835593       8.07927354       7.48890841                           
I       14.97988774       9.78766304       7.48890841                           
I       19.64372215       5.95562973      10.58202506                           
I       19.40664017       9.78794313      10.57507890                           
I       15.96816891       8.07899168      10.57507890                           
Cr      19.48408705      13.89743494      15.61475195                           
Cr      16.04559604      15.88077072      15.61475241                           
I       20.47200700      11.91126908      14.06395847                           
I       17.27057912      14.03462883      14.07089707                           
I       13.83211093      15.74359001      14.07089707                           
I       18.49841912      11.91127086      17.15723785                           
I       18.25886009      15.74330145      17.15707434                           
I       14.82038883      14.03491562      17.15707434                           
Cr     17.19314283      13.89741504       9.03123330                            
Cr     13.75465182      15.88079062       9.03123376                            
I       18.17882681      11.91126908       7.48874545                           
I       14.97986492      14.03491467       7.48890841                           
I       11.54139673      15.74330417       7.48890841                           
I       16.20523114      11.91127086      10.58202506                           
I       15.96814916      15.74358426      10.57507890                           
I       12.52967790      14.03463281      10.57507890                           
Cr      16.04559604      19.85307607      15.61475195                           
Cr      12.60710503      21.83641185      15.61475241                           
I       17.03351599      17.86691022      14.06395847                           
I       13.83208811      19.99026996      14.07089707                           
I       10.39361992      21.69923114      14.07089707                           
I       15.05992811      17.86691200      17.15723785                           
I       14.82036907      21.69894258      17.15707434                           
I       11.38189781      19.99055675      17.15707434                           
Cr     13.75465181      19.85305617       9.03123330                            
Cr     10.31616080      21.83643175       9.03123376                            
I       14.74033580      17.86691022       7.48874545                           
I       11.54137391      19.99055580       7.48890841                           
I        8.10290572      21.69894530       7.48890841                           
I       12.76674013      17.86691200      10.58202506                           
I       12.52965815      21.69922539      10.57507890                           
I        9.09118689      19.99027394      10.57507890                           
Cr      12.60710503      25.80871720      15.61475195                           
Cr       9.16861402      27.79205298      15.61475241                           
I       13.59502497      23.82255135      14.06395847                           
I       10.39359710      25.94591110      14.07089707                           
I        6.95512891      27.65487227      14.07089707                           
I       11.62143710      23.82255313      17.15723785                           
I       11.38187806      27.65458371      17.15707434                           
I        7.94340680      25.94619789      17.15707434                           
Cr     10.31616080      25.80869730       9.03123330                            
Cr      6.87766979      27.79207289       9.03123376                            
I       11.30184479      23.82255135       7.48874545                           
I        8.10288290      25.94619693       7.48890841                           
I        4.66441471      27.65458643       7.48890841                           
I        9.32824912      23.82255313      10.58202506                           
I        9.09116714      27.65486652      10.57507890                           
I        5.65269588      25.94591507      10.57507890                           
Cr       9.16861402      31.76435833      15.61475195                           
Cr       5.73012301      33.74769412      15.61475241                           
I       10.15653396      29.77819248      14.06395847                           
I        6.95510609      31.90155223      14.07089707                           
I        3.51663790      33.61051340      14.07089707                           
I        8.18294609      29.77819426      17.15723785                           
I        7.94338705      33.61022484      17.15707434                           
I        4.50491579      31.90183902      17.15707434                           
Cr      6.87766979      31.76433843       9.03123330                            
Cr      3.43917878      33.74771402       9.03123376                            
I        7.86335378      29.77819248       7.48874545                           
I        4.66439189      31.90183807       7.48890841                           
I        1.22592370      33.61022756       7.48890841                           
I        5.88975810      29.77819426      10.58202506                           
I        5.65267613      33.61050765      10.57507890                           
I        2.21420487      31.90155621      10.57507890                           
Cr      33.23805110       1.98615267      15.61475195                           
Cr      29.79956009       3.96948846      15.61475241                           
I       34.22597104      -0.00001318      14.06395847                           
I       31.02454317       2.12334657      14.07089707                           
I       27.58607498       3.83230774      14.07089707                           
I       32.25238317      -0.00001140      17.15723785                           
I       32.01282413       3.83201918      17.15707434                           
I       28.57435287       2.12363336      17.15707434                           
Cr     30.94710687       1.98613277       9.03123330                            
Cr     27.50861586       3.96950836       9.03123376                            
I       31.93279085      -0.00001318       7.48874545                           
I       28.73382897       2.12363241       7.48890841                           
I       25.29536078       3.83202190       7.48890841                           
I       29.95919518      -0.00001140      10.58202506                           
I       29.72211320       3.83230199      10.57507890                           
I       26.28364194       2.12335055      10.57507890                           
Cr      29.79956009       7.94179381      15.61475195                           
Cr      26.36106908       9.92512959      15.61475241                           
I       30.78748003       5.95562795      14.06395847                           
I       27.58605216       8.07898770      14.07089707                           
I       24.14758397       9.78794887      14.07089707                           
I       28.81389216       5.95562973      17.15723785                           
I       28.57433312       9.78766031      17.15707434                           
I       25.13586186       8.07927449      17.15707434                           
Cr     27.50861586       7.94177390       9.03123330                            
Cr     24.07012485       9.92514949       9.03123376                            
I       28.49429984       5.95562795       7.48874545                           
I       25.29533795       8.07927354       7.48890841                           
I       21.85686976       9.78766304       7.48890841                           
I       26.52070417       5.95562973      10.58202506                           
I       26.28362219       9.78794313      10.57507890                           
I       22.84515093       8.07899168      10.57507890                           
Cr      26.36106908      13.89743494      15.61475195                           
Cr      22.92257807      15.88077072      15.61475241                           
I       27.34898902      11.91126908      14.06395847                           
I       24.14756114      14.03462883      14.07089707                           
I       20.70909295      15.74359001      14.07089707                           
I       25.37540115      11.91127086      17.15723785                           
I       25.13584211      15.74330145      17.15707434                           
I       21.69737085      14.03491562      17.15707434                           
Cr     24.07012485      13.89741504       9.03123330                            
Cr     20.63163384      15.88079062       9.03123376                            
I       25.05580883      11.91126908       7.48874545                           
I       21.85684694      14.03491467       7.48890841                           
I       18.41837875      15.74330417       7.48890841                           
I       23.08221316      11.91127086      10.58202506                           
I       22.84513118      15.74358426      10.57507890                           
I       19.40665992      14.03463281      10.57507890                           
Cr      22.92257806      19.85307607      15.61475195                           
Cr      19.48408705      21.83641185      15.61475241                           
I       23.91049801      17.86691022      14.06395847                           
I       20.70907013      19.99026996      14.07089707                           
I       17.27060194      21.69923114      14.07089707                           
I       21.93691014      17.86691200      17.15723785                           
I       21.69735110      21.69894258      17.15707434                           
I       18.25887984      19.99055675      17.15707434                           
Cr     20.63163384      19.85305617       9.03123330                            
Cr     17.19314283      21.83643175       9.03123376                            
I       21.61731782      17.86691022       7.48874545                           
I       18.41835593      19.99055580       7.48890841                           
I       14.97988774      21.69894530       7.48890841                           
I       19.64372215      17.86691200      10.58202506                           
I       19.40664017      21.69922539      10.57507890                           
I       15.96816891      19.99027394      10.57507890                           
Cr      19.48408705      25.80871720      15.61475195                           
Cr      16.04559604      27.79205298      15.61475241                           
I       20.47200700      23.82255135      14.06395847                           
I       17.27057912      25.94591110      14.07089707                           
I       13.83211093      27.65487227      14.07089707                           
I       18.49841912      23.82255313      17.15723785                           
I       18.25886009      27.65458371      17.15707434                           
I       14.82038883      25.94619789      17.15707434                           
Cr     17.19314283      25.80869730       9.03123330                            
Cr     13.75465182      27.79207289       9.03123376                            
I       18.17882681      23.82255135       7.48874545                           
I       14.97986492      25.94619693       7.48890841                           
I       11.54139673      27.65458643       7.48890841                           
I       16.20523114      23.82255313      10.58202506                           
I       15.96814916      27.65486652      10.57507890                           
I       12.52967790      25.94591507      10.57507890                           
Cr      16.04559604      31.76435833      15.61475195                           
Cr      12.60710503      33.74769412      15.61475241                           
I       17.03351599      29.77819248      14.06395847                           
I       13.83208811      31.90155223      14.07089707                           
I       10.39361992      33.61051340      14.07089707                           
I       15.05992811      29.77819426      17.15723785                           
I       14.82036907      33.61022484      17.15707434                           
I       11.38189781      31.90183902      17.15707434                           
Cr     13.75465181      31.76433843       9.03123330                            
Cr     10.31616080      33.74771402       9.03123376                            
I       14.74033580      29.77819248       7.48874545                           
I       11.54137391      31.90183807       7.48890841                           
I        8.10290572      33.61022756       7.48890841                           
I       12.76674013      29.77819426      10.58202506                           
I       12.52965815      33.61050765      10.57507890                           
I        9.09118689      31.90155621      10.57507890                           
Cr      40.11503312       1.98615267      15.61475195                           
Cr      36.67654211       3.96948846      15.61475241                           
I       41.10295306      -0.00001318      14.06395847                           
I       37.90152519       2.12334657      14.07089707                           
I       34.46305700       3.83230774      14.07089707                           
I       39.12936519      -0.00001140      17.15723785                           
I       38.88980615       3.83201918      17.15707434                           
I       35.45133489       2.12363336      17.15707434                           
Cr     37.82408889       1.98613277       9.03123330                            
Cr     34.38559788       3.96950836       9.03123376                            
I       38.80977287      -0.00001318       7.48874545                           
I       35.61081099       2.12363241       7.48890841                           
I       32.17234280       3.83202190       7.48890841                           
I       36.83617720      -0.00001140      10.58202506                           
I       36.59909523       3.83230199      10.57507890                           
I       33.16062397       2.12335055      10.57507890                           
Cr      36.67654211       7.94179381      15.61475195                           
Cr      33.23805110       9.92512959      15.61475241                           
I       37.66446205       5.95562795      14.06395847                           
I       34.46303418       8.07898770      14.07089707                           
I       31.02456599       9.78794887      14.07089707                           
I       35.69087418       5.95562973      17.15723785                           
I       35.45131514       9.78766031      17.15707434                           
I       32.01284388       8.07927449      17.15707434                           
Cr     34.38559788       7.94177390       9.03123330                            
Cr     30.94710687       9.92514949       9.03123376                            
I       35.37128186       5.95562795       7.48874545                           
I       32.17231998       8.07927354       7.48890841                           
I       28.73385179       9.78766304       7.48890841                           
I       33.39768619       5.95562973      10.58202506                           
I       33.16060422       9.78794313      10.57507890                           
I       29.72213296       8.07899168      10.57507890                           
Cr      33.23805110      13.89743494      15.61475195                           
Cr      29.79956009      15.88077072      15.61475241                           
I       34.22597104      11.91126908      14.06395847                           
I       31.02454317      14.03462883      14.07089707                           
I       27.58607498      15.74359001      14.07089707                           
I       32.25238317      11.91127086      17.15723785                           
I       32.01282413      15.74330145      17.15707434                           
I       28.57435287      14.03491562      17.15707434                           
Cr     30.94710687      13.89741504       9.03123330                            
Cr     27.50861586      15.88079062       9.03123376                            
I       31.93279085      11.91126908       7.48874545                           
I       28.73382897      14.03491467       7.48890841                           
I       25.29536078      15.74330417       7.48890841                           
I       29.95919518      11.91127086      10.58202506                           
I       29.72211320      15.74358426      10.57507890                           
I       26.28364194      14.03463281      10.57507890                           
Cr      29.79956009      19.85307607      15.61475195                           
Cr      26.36106908      21.83641185      15.61475241                           
I       30.78748003      17.86691022      14.06395847                           
I       27.58605216      19.99026996      14.07089707                           
I       24.14758397      21.69923114      14.07089707                           
I       28.81389216      17.86691200      17.15723785                           
I       28.57433312      21.69894258      17.15707434                           
I       25.13586186      19.99055675      17.15707434                           
Cr     27.50861586      19.85305617       9.03123330                            
Cr     24.07012485      21.83643175       9.03123376                            
I       28.49429984      17.86691022       7.48874545                           
I       25.29533795      19.99055580       7.48890841                           
I       21.85686976      21.69894530       7.48890841                           
I       26.52070417      17.86691200      10.58202506                           
I       26.28362219      21.69922539      10.57507890                           
I       22.84515093      19.99027394      10.57507890                           
Cr      26.36106908      25.80871720      15.61475195                           
Cr      22.92257807      27.79205298      15.61475241                           
I       27.34898902      23.82255135      14.06395847                           
I       24.14756114      25.94591110      14.07089707                           
I       20.70909295      27.65487227      14.07089707                           
I       25.37540115      23.82255313      17.15723785                           
I       25.13584211      27.65458371      17.15707434                           
I       21.69737085      25.94619789      17.15707434                           
Cr     24.07012485      25.80869730       9.03123330                            
Cr     20.63163384      27.79207289       9.03123376                            
I       25.05580883      23.82255135       7.48874545                           
I       21.85684694      25.94619693       7.48890841                           
I       18.41837875      27.65458643       7.48890841                           
I       23.08221316      23.82255313      10.58202506                           
I       22.84513118      27.65486652      10.57507890                           
I       19.40665992      25.94591507      10.57507890                           
Cr      22.92257806      31.76435833      15.61475195                           
Cr      19.48408705      33.74769412      15.61475241                           
I       23.91049801      29.77819248      14.06395847                           
I       20.70907013      31.90155223      14.07089707                           
I       17.27060194      33.61051340      14.07089707                           
I       21.93691014      29.77819426      17.15723785                           
I       21.69735110      33.61022484      17.15707434                           
I       18.25887984      31.90183902      17.15707434                           
Cr     20.63163384      31.76433843       9.03123330                            
Cr     17.19314283      33.74771402       9.03123376                            
I       21.61731782      29.77819248       7.48874545                           
I       18.41835593      31.90183807       7.48890841                           
I       14.97988774      33.61022756       7.48890841                           
I       19.64372215      29.77819426      10.58202506                           
I       19.40664017      33.61050765      10.57507890                           
I       15.96816891      31.90155621      10.57507890                           
%ENDBLOCK POSITIONS_ABS                                                         
%BLOCK SPECIES                                                                  
Cr Cr 24 -1 15                                                                  
I   I  53 -1 15                                                                 
%ENDBLOCK SPECIES                                                               
%BLOCK SPECIES_ATOMIC_SET                                                       
Cr "SOLVE INIT SPIN=3"                                                          
I   "SOLVE"                                                                     
%ENDBLOCK SPECIES_ATOMIC_SET                                                    
%BLOCK HUBBARD                                                                  
Cr  2 2.97 0.37 -10.0 0.00 0.0                                                  
%ENDBLOCK HUBBARD                                                               
%BLOCK SPECIES_LDOS_GROUPS                                                      
Cr                                                                              
I                                                                               
%ENDBLOCK SPECIES_LDOS_GROUPS                                                   
%BLOCK SPECIES_POT                                                              
Cr  "../../../../Cr.PBE-paw.abinit"                                             
I   "../../../../I.PBE-paw.abinit"                                              
%ENDBLOCK SPECIES_POT                                                           

--------------------------------------------------------------------------------
-------------------------------- END INPUT FILE --------------------------------
--------------------------------------------------------------------------------


 
 ESDF WARNING(1): "charge" (esdf_physical) has no units. Assume "e".
<<<<<<<<<<<<<<<<<<<<<<<<<<<<<<<<< Full system >>>>>>>>>>>>>>>>>>>>>>>>>>>>>>>>>>
<<<<<<<<<<<<<<<<<<<<<<<<<<< PAW Dataset information >>>>>>>>>>>>>>>>>>>>>>>>>>>
File: ../../../../Cr.PBE-paw.abinit; rc = 2.11 bohr; shape type =  2; rshape = 1.80 bohr;
  Atomic number: 24;  ionic charge: 14.000000
    Partial Wave 1: l = 0
    Partial Wave 2: l = 0
    Partial Wave 3: l = 1
    Partial Wave 4: l = 1
    Partial Wave 5: l = 2
    Partial Wave 6: l = 2
  Core charge supplied for Nonlinear Core Corrections
File: ../../../../I.PBE-paw.abinit; rc = 2.30 bohr; shape type =  2; rshape = 2.11 bohr;
  Atomic number: 53;  ionic charge:  7.000000
    Partial Wave 1: l = 0
    Partial Wave 2: l = 0
    Partial Wave 3: l = 1
    Partial Wave 4: l = 1
  Core charge supplied for Nonlinear Core Corrections
<<<<<<<<<<<<<<<<<<<<<<<<<<<<<<<<<<<<<<< >>>>>>>>>>>>>>>>>>>>>>>>>>>>>>>>>>>>>>>

-------------------------- Atom counting information ---------------------------
Symbol    Natoms    Nngwfs    Nprojs
  Cr       144      1872      2592
  I        432      1728      3456
.......   ......    ......    ......
Totals:    576      3600      6048
--------------------------------------------------------------------------------

=============================== PSINC grid sizes ===============================
                      Simulation cell:  175 x 175 x 117
                              FFT-box:  175 x 175 x 117
                                  PPD:    5 x   5 x   1
Grid space d1=  0.445563862424a0 (KE cutoff=  38.26345Eh =1041.20135eV)
Grid space d2=  0.445563862400a0 (KE cutoff=  38.26345Eh =1041.20135eV)
Grid space d3=  0.444294449711a0 (KE cutoff=  38.48241Eh =1047.15957eV)
================================================================================

********************* Fourier parallelisation information **********************
       Coarse grid (whole simulation cell) dimensions:    175   175   117
          Real-space ('12') slabs/proc (min max mean):      0     1     0
         Recip-space ('23') slabs/proc (min max mean):      0     1     0
********************************************************************************

********************* Fourier parallelisation information **********************
       Double grid (whole simulation cell) dimensions:    350   350   234
          Real-space ('12') slabs/proc (min max mean):      1     2     1
         Recip-space ('23') slabs/proc (min max mean):      1     2     1
********************************************************************************

********************* Fourier parallelisation information **********************
         Fine grid (whole simulation cell) dimensions:    700   700   468
          Real-space ('12') slabs/proc (min max mean):      3     4     3
         Recip-space ('23') slabs/proc (min max mean):      2     3     2
********************************************************************************

Atom SCF Calculation for Cr : Z (AE atom) =  24 : Z (PS atom) =  14
Config String: 3s2.0 3p6.0 3d5.0 4s1.0 4p0.0 INIT SPIN=3
Orbitals (num,occ):  5     2.00 6.00 5.00 1.00 0.00
Orbitals   (num,l):  5        0    1    2    0    1
Atom SCF converged after  64 iterations to a total energy of    -87.07044631
Adjusting orbital occupancies:
Orbitals (num,spin,occ):  5  1     1.00 3.00 3.50 1.00 0.00
Orbitals   (num,spin,l):  5  1        0    1    2    0    1
Orbitals (num,spin,occ):  5  2     1.00 3.00 1.00 0.50 0.00
Orbitals   (num,spin,l):  5  2        0    1    2    0    1

Atom SCF Calculation for I  : Z (AE atom) =  53 : Z (PS atom) =   7
Config String: 5s2.0 5p5.0
Orbitals (num,occ):  2     2.00 5.00
Orbitals   (num,l):  2        0    1
Atom SCF converged after  28 iterations to a total energy of    -11.61352964

Atom SCF Calculation for Cr : Z (AE atom) =  24 : Z (PS atom) =  14
Config String: 3s2.0 3p6.0 3d5.0 4s1.0 4p0.0 INIT SPIN=3
Orbitals (num,occ):  5     2.00 6.00 5.00 1.00 0.00
Orbitals   (num,l):  5        0    1    2    0    1
Atom SCF converged after  64 iterations to a total energy of    -87.07044631

Atom SCF Calculation for I  : Z (AE atom) =  53 : Z (PS atom) =   7
Config String: 5s2.0 5p5.0
Orbitals (num,occ):  2     2.00 5.00
Orbitals   (num,l):  2        0    1
Atom SCF converged after  28 iterations to a total energy of    -11.61352964

Determining parallel strategy ...... done
Calculating Ewald energy ...            31475.177180 Hartree
Basis initialisation ...
... done

============================= Charge Augmentation ==============================
                           Aug box size:   49 x  49 x  45
================================================================================
Sparse matrix initialisation ...
 done
NGWF initialisation ... done
 done

================================= Core Density =================================
               Core den box size:  125 x 125 x 105
================================================================================
Density kernel initialisation

--------------------------- Ensemble-DFT optimisation --------------------------
Running ScaLAPACK on  150 processor(s).
With smearing scheme: FERMIDIRAC                                                                      

--------------------------------------------------------------------------------
  Iter                              Commutator    Free_energy(A=E-TS)     DeltaA
#    0                          0.005733518493  -17489.36284842459650  -1.75E+04
#    1                          0.002525107972  -17569.82250259090870  -8.05E+01
#    2                          0.000217563204  -17612.39962661893880  -4.26E+01
#    3                          0.000177239200  -17612.79482323523190  -3.95E-01
#    4                          0.000148255344  -17613.04549818861410  -2.51E-01
#    5                          0.000107389292  -17613.21972494550210  -1.74E-01
#    6                          0.000095656201  -17613.33149607663290  -1.12E-01
#    7                          0.000069009415  -17613.40790390852640  -7.64E-02
#    8                          0.000062232281  -17613.45671718889210  -4.88E-02
#    9                          0.000046930166  -17613.49138169562500  -3.47E-02
#   10                          0.000041086677  -17613.51374584728910  -2.24E-02
#   11                          0.000033547613  -17613.53054424249060  -1.68E-02
#   12                          0.000028325361  -17613.54155132627780  -1.10E-02
#   13                          0.000024967504  -17613.55020246407000  -8.65E-03
#   14                          0.000019358721  -17613.55585937593420  -5.66E-03
#   15                          0.000019785865  -17613.56059310827910  -4.73E-03
Finished EDFT density kernel iterations (  15)


Writing density kernel to file "Cr2I6_bilayer_HT_AFM_FM_nSP.dkn" ... done

Writing Hamiltonian to file "Cr2I6_bilayer_HT_AFM_FM_nSP.ham" ... done

Writing density kernel to file "Cr2I6_bilayer_HT_AFM_FM_nSP.dkn" ... done

>>> Optimising kernel for current NGWFs:
   iter  |      energy (Eh)       | rms gradient |  commutator  |   dE (Eh)
    1        -1.761355956439E+04     3.4503E-05     1.8960E-05
    2        -1.761356190405E+04     3.8464E-05     1.9573E-05    -2.3397E-03
    3        -1.761356435962E+04     5.3235E-05     2.7594E-05    -2.4556E-03
    4        -1.761356771217E+04     6.4980E-05     3.3714E-05    -3.3526E-03
    5        -1.761356953388E+04     4.4476E-05     2.3318E-05    -1.8217E-03
Finished density kernel iterations (   5)

Writing density kernel to file "Cr2I6_bilayer_HT_AFM_FM_nSP.dkn" ... done


>>> Density kernel optimised for the current NGWF basis:
     ~~~~~~~~~~~~~~~~~~~~~~~~~~~~~~~~~~~~~~~~~~~~~~~~~~~~~~~~~~~
     Total energy                =  -1.76135695338847E+04  Eh
     Estimated bandgap (UP spin) =   3.3213E-02  Eh
     Estimated bandgap (DN spin) =   1.0975E-01  Eh
     RMS occupancy error         =   2.7248E-09
     [H,K] commutator            =   2.3318E-05
     UP spin occupancy bounds    = [ -0.000:  1.000]
     DN spin occupancy bounds    = [ -0.000:  1.000]
     ~~~~~~~~~~~~~~~~~~~~~~~~~~~~~~~~~~~~~~~~~~~~~~~~~~~~~~~~~~~




################################################################################
########################### NGWF CG iteration  001 #############################
################################################################################

>>> Checking for convergence of NGWFs:   NOT CONVERGED
  ========================================================================
         NGWF RMS gradient =  9.9091E-05 >  1.0000E-06  | above tolerance
  ========================================================================

>>> Improving NGWFs using line search:
  ========================================================================
   Predicted total energy    =      -1.76214345249470E+04 Eh
   Predicted gain in energy  =      -7.86499106235351E+00 Eh
  ========================================================================

Writing NGWFs to file "Cr2I6_bilayer_HT_AFM_FM_nSP.tightbox_ngwfs".... done

>>> Optimising kernel for current NGWFs:
   iter  |      energy (Eh)       | rms gradient |  commutator  |   dE (Eh)
    1        -1.762141783051E+04     5.2513E-04     2.6526E-04
    2        -1.762178832574E+04     2.0855E-04     1.0647E-04    -3.7050E-01
    3        -1.762182634435E+04     9.4279E-05     4.8181E-05    -3.8019E-02
    4        -1.762183843109E+04     6.4733E-05     3.3086E-05    -1.2087E-02
    5        -1.762184508569E+04     3.1629E-05     1.6133E-05    -6.6546E-03
Finished density kernel iterations (   5)

Writing density kernel to file "Cr2I6_bilayer_HT_AFM_FM_nSP.dkn" ... done


>>> Density kernel optimised for the current NGWF basis:
     ~~~~~~~~~~~~~~~~~~~~~~~~~~~~~~~~~~~~~~~~~~~~~~~~~~~~~~~~~~~
     Total energy                =  -1.76218450856867E+04  Eh
     Estimated bandgap (UP spin) =   3.9330E-02  Eh
     Estimated bandgap (DN spin) =   1.1816E-01  Eh
     RMS occupancy error         =   7.7864E-10
     [H,K] commutator            =   1.6133E-05
     UP spin occupancy bounds    = [ -0.000:  1.000]
     DN spin occupancy bounds    = [ -0.000:  1.000]
     ~~~~~~~~~~~~~~~~~~~~~~~~~~~~~~~~~~~~~~~~~~~~~~~~~~~~~~~~~~~




################################################################################
########################### NGWF CG iteration  002 #############################
################################################################################

>>> Checking for convergence of NGWFs:   NOT CONVERGED
  ========================================================================
         NGWF RMS gradient =  6.7253E-05 >  1.0000E-06  | above tolerance
  Maximum change in energy =  1.4367E-02 >  1.0000E-07  | above tolerance
  ========================================================================

>>> Improving NGWFs using line search:
  ========================================================================
   Predicted total energy    =      -1.76243593927568E+04 Eh
   Predicted gain in energy  =      -2.51430707003237E+00 Eh
  ========================================================================

Writing NGWFs to file "Cr2I6_bilayer_HT_AFM_FM_nSP.tightbox_ngwfs".... done

>>> Optimising kernel for current NGWFs:
   iter  |      energy (Eh)       | rms gradient |  commutator  |   dE (Eh)
    1        -1.762435073590E+04     1.7908E-04     9.0841E-05
    2        -1.762440058881E+04     4.5815E-05     2.3100E-05    -4.9853E-02
    3        -1.762440475143E+04     5.0090E-05     2.5464E-05    -4.1626E-03
    4        -1.762440822278E+04     2.5338E-05     1.2729E-05    -3.4714E-03
    5        -1.762440928956E+04     1.9954E-05     9.7880E-06    -1.0668E-03
Finished density kernel iterations (   5)

Writing density kernel to file "Cr2I6_bilayer_HT_AFM_FM_nSP.dkn" ... done


>>> Density kernel optimised for the current NGWF basis:
     ~~~~~~~~~~~~~~~~~~~~~~~~~~~~~~~~~~~~~~~~~~~~~~~~~~~~~~~~~~~
     Total energy                =  -1.76244092895589E+04  Eh
     Estimated bandgap (UP spin) =   3.8622E-02  Eh
     Estimated bandgap (DN spin) =   1.1728E-01  Eh
     RMS occupancy error         =   1.0377E-10
     [H,K] commutator            =   9.7880E-06
     UP spin occupancy bounds    = [  0.000:  1.000]
     DN spin occupancy bounds    = [  0.000:  1.000]
     ~~~~~~~~~~~~~~~~~~~~~~~~~~~~~~~~~~~~~~~~~~~~~~~~~~~~~~~~~~~




################################################################################
########################### NGWF CG iteration  003 #############################
################################################################################

>>> Checking for convergence of NGWFs:   NOT CONVERGED
  ========================================================================
         NGWF RMS gradient =  4.1687E-05 >  1.0000E-06  | above tolerance
  Maximum change in energy =  1.4367E-02 >  1.0000E-07  | above tolerance
  ========================================================================

>>> Improving NGWFs using line search:
  ========================================================================
   Predicted total energy    =      -1.76254893376394E+04 Eh
   Predicted gain in energy  =      -1.08004808047190E+00 Eh
  ========================================================================

Writing NGWFs to file "Cr2I6_bilayer_HT_AFM_FM_nSP.tightbox_ngwfs".... done

>>> Optimising kernel for current NGWFs:
   iter  |      energy (Eh)       | rms gradient |  commutator  |   dE (Eh)
    1        -1.762547872938E+04     1.8910E-04     9.5574E-05
    2        -1.762551783539E+04     9.1966E-05     4.6789E-05    -3.9106E-02
    3        -1.762552496570E+04     3.3569E-05     1.6917E-05    -7.1303E-03
    4        -1.762552659852E+04     2.3528E-05     1.1752E-05    -1.6328E-03
    5        -1.762552773761E+04     1.5406E-05     8.1823E-06    -1.1391E-03
Finished density kernel iterations (   5)

Writing density kernel to file "Cr2I6_bilayer_HT_AFM_FM_nSP.dkn" ... done


>>> Density kernel optimised for the current NGWF basis:
     ~~~~~~~~~~~~~~~~~~~~~~~~~~~~~~~~~~~~~~~~~~~~~~~~~~~~~~~~~~~
     Total energy                =  -1.76255277376143E+04  Eh
     Estimated bandgap (UP spin) =   3.8466E-02  Eh
     Estimated bandgap (DN spin) =   1.1752E-01  Eh
     RMS occupancy error         =   5.0436E-11
     [H,K] commutator            =   8.1823E-06
     UP spin occupancy bounds    = [  0.000:  1.000]
     DN spin occupancy bounds    = [  0.000:  1.000]
     ~~~~~~~~~~~~~~~~~~~~~~~~~~~~~~~~~~~~~~~~~~~~~~~~~~~~~~~~~~~




################################################################################
########################### NGWF CG iteration  004 #############################
################################################################################

>>> Checking for convergence of NGWFs:   NOT CONVERGED
  ========================================================================
         NGWF RMS gradient =  3.0102E-05 >  1.0000E-06  | above tolerance
  Maximum change in energy =  4.4517E-03 >  1.0000E-07  | above tolerance
  ========================================================================

>>> Improving NGWFs using line search:
  ========================================================================
   Predicted total energy    =      -1.76261272089055E+04 Eh
   Predicted gain in energy  =      -5.99471291181544E-01 Eh
  ========================================================================

Writing NGWFs to file "Cr2I6_bilayer_HT_AFM_FM_nSP.tightbox_ngwfs".... done

>>> Optimising kernel for current NGWFs:
   iter  |      energy (Eh)       | rms gradient |  commutator  |   dE (Eh)
    1        -1.762611601281E+04     6.5937E-05     3.3414E-05
    2        -1.762612294170E+04     3.6302E-05     1.7931E-05    -6.9289E-03
    3        -1.762612441660E+04     2.5243E-05     1.2342E-05    -1.4749E-03
    4        -1.762612568580E+04     1.7012E-05     8.6811E-06    -1.2692E-03
    5        -1.762612601561E+04     1.0005E-05     5.0698E-06    -3.2981E-04
Finished density kernel iterations (   5)

Writing density kernel to file "Cr2I6_bilayer_HT_AFM_FM_nSP.dkn" ... done


>>> Density kernel optimised for the current NGWF basis:
     ~~~~~~~~~~~~~~~~~~~~~~~~~~~~~~~~~~~~~~~~~~~~~~~~~~~~~~~~~~~
     Total energy                =  -1.76261260156118E+04  Eh
     Estimated bandgap (UP spin) =   3.7414E-02  Eh
     Estimated bandgap (DN spin) =   1.1684E-01  Eh
     RMS occupancy error         =   1.9170E-11
     [H,K] commutator            =   5.0698E-06
     UP spin occupancy bounds    = [  0.000:  1.000]
     DN spin occupancy bounds    = [  0.000:  1.000]
     ~~~~~~~~~~~~~~~~~~~~~~~~~~~~~~~~~~~~~~~~~~~~~~~~~~~~~~~~~~~




################################################################################
########################### NGWF CG iteration  005 #############################
################################################################################

>>> Checking for convergence of NGWFs:   NOT CONVERGED
  ========================================================================
         NGWF RMS gradient =  2.1328E-05 >  1.0000E-06  | above tolerance
  Maximum change in energy =  1.9418E-03 >  1.0000E-07  | above tolerance
  ========================================================================

>>> Improving NGWFs using line search:
  ========================================================================
   Predicted total energy    =      -1.76262990422931E+04 Eh
   Predicted gain in energy  =      -1.73026681346528E-01 Eh
  ========================================================================

Writing NGWFs to file "Cr2I6_bilayer_HT_AFM_FM_nSP.tightbox_ngwfs".... done

>>> Optimising kernel for current NGWFs:
   iter  |      energy (Eh)       | rms gradient |  commutator  |   dE (Eh)
    1        -1.762629838695E+04     9.0889E-06     4.5455E-06
    2        -1.762629857300E+04     1.8723E-05     9.4929E-06    -1.8606E-04
    3        -1.762629874949E+04     1.8217E-05     9.4201E-06    -1.7649E-04
    4        -1.762629895325E+04     1.0819E-05     5.4933E-06    -2.0375E-04
    5        -1.762629905915E+04     1.2504E-05     6.5367E-06    -1.0591E-04
Finished density kernel iterations (   5)

Writing density kernel to file "Cr2I6_bilayer_HT_AFM_FM_nSP.dkn" ... done


>>> Density kernel optimised for the current NGWF basis:
     ~~~~~~~~~~~~~~~~~~~~~~~~~~~~~~~~~~~~~~~~~~~~~~~~~~~~~~~~~~~
     Total energy                =  -1.76262990591543E+04  Eh
     Estimated bandgap (UP spin) =   3.7095E-02  Eh
     Estimated bandgap (DN spin) =   1.1669E-01  Eh
     RMS occupancy error         =   1.7091E-11
     [H,K] commutator            =   6.5367E-06
     UP spin occupancy bounds    = [  0.000:  1.000]
     DN spin occupancy bounds    = [  0.000:  1.000]
     ~~~~~~~~~~~~~~~~~~~~~~~~~~~~~~~~~~~~~~~~~~~~~~~~~~~~~~~~~~~




################################################################################
########################### NGWF CG iteration  006 #############################
################################################################################

>>> Checking for convergence of NGWFs:   NOT CONVERGED
  ========================================================================
         NGWF RMS gradient =  1.4733E-05 >  1.0000E-06  | above tolerance
  Maximum change in energy =  1.0387E-03 >  1.0000E-07  | above tolerance
  ========================================================================

>>> Improving NGWFs using line search:
  ========================================================================
   Predicted total energy    =      -1.76264453473222E+04 Eh
   Predicted gain in energy  =      -1.46288167976309E-01 Eh
  ========================================================================

Writing NGWFs to file "Cr2I6_bilayer_HT_AFM_FM_nSP.tightbox_ngwfs".... done

>>> Optimising kernel for current NGWFs:
   iter  |      energy (Eh)       | rms gradient |  commutator  |   dE (Eh)
    1        -1.762644039173E+04     2.4545E-05     1.2364E-05
    2        -1.762644140832E+04     2.6938E-05     1.4278E-05    -1.0166E-03
[...]
*    I     436     -0.00328614  -0.00541542  -0.00802079 *
*    I     437     -0.00329790   0.00543517  -0.00801506 *
*    I     438     -0.00616501  -0.00000049   0.01071410 *
*    I     439      0.00307336   0.00535294   0.01071179 *
*    I     440      0.00307703  -0.00536860   0.01070641 *
*    Cr    441      0.00006849  -0.00022280   0.00008205 *
*    Cr    442      0.00005159   0.00019735   0.00008349 *
*    I     443      0.00616014   0.00000357  -0.01071274 *
*    I     444     -0.00307282  -0.00535063  -0.01070912 *
*    I     445     -0.00308419   0.00536275  -0.01070406 *
*    I     446     -0.00598741  -0.00000572   0.00869017 *
*    I     447      0.00328678   0.00541543   0.00801892 *
*    I     448      0.00328930  -0.00544015   0.00801556 *
*    Cr    449      0.00001709  -0.00016660  -0.00007429 *
*    Cr    450     -0.00007687   0.00020112  -0.00008006 *
*    I     451      0.00598365   0.00000667  -0.00869144 *
*    I     452     -0.00328682  -0.00541467  -0.00802143 *
*    I     453     -0.00329793   0.00543569  -0.00801525 *
*    I     454     -0.00616484  -0.00000039   0.01071367 *
*    I     455      0.00307347   0.00535283   0.01071165 *
*    I     456      0.00307756  -0.00536756   0.01070521 *
*    Cr    457      0.00006523  -0.00020379   0.00007987 *
*    Cr    458      0.00005837   0.00020169   0.00007662 *
*    I     459      0.00616072   0.00000604  -0.01071416 *
*    I     460     -0.00307390  -0.00535047  -0.01070953 *
*    I     461     -0.00308254   0.00536635  -0.01070524 *
*    I     462     -0.00598743  -0.00000542   0.00869083 *
*    I     463      0.00328583   0.00541465   0.00801967 *
*    I     464      0.00329167  -0.00543691   0.00801408 *
*    Cr    465      0.00001437  -0.00016544  -0.00007423 *
*    Cr    466      0.00001218   0.00015288  -0.00007821 *
*    I     467      0.00598496   0.00000947  -0.00869126 *
*    I     468     -0.00328517  -0.00541598  -0.00802252 *
*    I     469     -0.00329599   0.00543819  -0.00801558 *
*    I     470     -0.00616611  -0.00000322   0.01071477 *
*    I     471      0.00307487   0.00535270   0.01071315 *
*    I     472      0.00307623  -0.00537106   0.01070771 *
*    Cr    473      0.00006925  -0.00020606   0.00008185 *
*    Cr    474      0.00005142   0.00021030   0.00008069 *
*    I     475      0.00616296   0.00000683  -0.01071435 *
*    I     476     -0.00307409  -0.00535055  -0.01071042 *
*    I     477     -0.00308216   0.00536795  -0.01070500 *
*    I     478     -0.00598593  -0.00000364   0.00868955 *
*    I     479      0.00328602   0.00541399   0.00802028 *
*    I     480      0.00329255  -0.00543521   0.00801347 *
*    Cr    481     -0.00007031  -0.00020734  -0.00008303 *
*    Cr    482      0.00001700   0.00014730  -0.00007699 *
*    I     483      0.00598559   0.00000943  -0.00869103 *
*    I     484     -0.00328533  -0.00541478  -0.00802318 *
*    I     485     -0.00329685   0.00543820  -0.00801682 *
*    I     486     -0.00616504   0.00000035   0.01071191 *
*    I     487      0.00307386   0.00534874   0.01071059 *
*    I     488      0.00307941  -0.00536783   0.01070838 *
*    Cr    489      0.00006740  -0.00020055   0.00008354 *
*    Cr    490      0.00005620   0.00021387   0.00008285 *
*    I     491      0.00616042   0.00000263  -0.01071286 *
*    I     492     -0.00307334  -0.00535024  -0.01070951 *
*    I     493     -0.00308505   0.00536410  -0.01070538 *
*    I     494     -0.00598505  -0.00000438   0.00868916 *
*    I     495      0.00328634   0.00541334   0.00801981 *
*    I     496      0.00329101  -0.00543877   0.00801466 *
*    Cr    497     -0.00006050  -0.00020939  -0.00007940 *
*    Cr    498     -0.00007276   0.00020428  -0.00007940 *
*    I     499      0.00598447   0.00000833  -0.00869169 *
*    I     500     -0.00328535  -0.00541653  -0.00802149 *
*    I     501     -0.00329886   0.00543771  -0.00801690 *
*    I     502     -0.00616460   0.00000101   0.01071349 *
*    I     503      0.00307347   0.00534879   0.01071033 *
*    I     504      0.00307656  -0.00536811   0.01070358 *
*    Cr    505      0.00006740  -0.00019026   0.00007647 *
*    Cr    506      0.00004956   0.00021439   0.00008295 *
*    I     507      0.00616145   0.00000193  -0.01071399 *
*    I     508     -0.00307339  -0.00535003  -0.01071009 *
*    I     509     -0.00308573   0.00536324  -0.01070456 *
*    I     510     -0.00598711  -0.00000518   0.00868986 *
*    I     511      0.00328591   0.00541270   0.00802007 *
*    I     512      0.00329203  -0.00543791   0.00801391 *
*    Cr    513     -0.00005775  -0.00021642  -0.00007780 *
*    Cr    514     -0.00007574   0.00021683  -0.00008012 *
*    I     515      0.00598203   0.00000776  -0.00868813 *
*    I     516     -0.00328591  -0.00541579  -0.00802116 *
*    I     517     -0.00329981   0.00543553  -0.00801647 *
*    I     518     -0.00616647  -0.00000044   0.01071436 *
*    I     519      0.00307303   0.00535062   0.01070979 *
*    I     520      0.00307600  -0.00536948   0.01070704 *
*    Cr    521      0.00005304  -0.00018864   0.00008366 *
*    Cr    522      0.00007803   0.00020950   0.00007834 *
*    I     523      0.00616034   0.00000341  -0.01071340 *
*    I     524     -0.00307417  -0.00535036  -0.01071077 *
*    I     525     -0.00308593   0.00536503  -0.01070451 *
*    I     526     -0.00598841  -0.00000725   0.00869116 *
*    I     527      0.00328557   0.00541376   0.00802060 *
*    I     528      0.00329031  -0.00544025   0.00801492 *
*    Cr    529     -0.00006190  -0.00023696  -0.00007843 *
*    Cr    530     -0.00007957   0.00019659  -0.00008298 *
*    I     531      0.00598044   0.00000714  -0.00869029 *
*    I     532     -0.00328634  -0.00541480  -0.00802172 *
*    I     533     -0.00329777   0.00543631  -0.00801734 *
*    I     534     -0.00616512  -0.00000072   0.01071499 *
*    I     535      0.00307305   0.00535008   0.01071099 *
*    I     536      0.00307629  -0.00536855   0.01070647 *
*    Cr    537      0.00007115  -0.00021984   0.00008293 *
*    Cr    538      0.00006159   0.00020119   0.00007822 *
*    I     539      0.00616322   0.00000512  -0.01071504 *
*    I     540     -0.00307321  -0.00535082  -0.01070974 *
*    I     541     -0.00308358   0.00536819  -0.01070551 *
*    I     542     -0.00598822  -0.00000631   0.00869172 *
*    I     543      0.00328532   0.00541358   0.00801886 *
*    I     544      0.00328972  -0.00543874   0.00801360 *
*    Cr    545     -0.00006187  -0.00022022  -0.00008047 *
*    Cr    546     -0.00008055   0.00019681  -0.00008354 *
*    I     547      0.00598300   0.00001078  -0.00869127 *
*    I     548     -0.00328743  -0.00541392  -0.00802120 *
*    I     549     -0.00329638   0.00543725  -0.00801651 *
*    I     550     -0.00616650  -0.00000374   0.01071509 *
*    I     551      0.00307408   0.00535108   0.01071076 *
*    I     552      0.00307497  -0.00537065   0.01070733 *
*    Cr    553      0.00007554  -0.00020526   0.00008062 *
*    Cr    554      0.00005474   0.00020151   0.00008449 *
*    I     555      0.00616231   0.00000737  -0.01071413 *
*    I     556     -0.00307415  -0.00535028  -0.01071057 *
*    I     557     -0.00308296   0.00536850  -0.01070550 *
*    I     558     -0.00598574  -0.00000201   0.00868883 *
*    I     559      0.00328522   0.00541396   0.00802021 *
*    I     560      0.00329093  -0.00543641   0.00801271 *
*    Cr    561     -0.00006600  -0.00021115  -0.00008538 *
*    Cr    562     -0.00008197   0.00019846  -0.00008231 *
*    I     563      0.00598398   0.00001035  -0.00869069 *
*    I     564     -0.00328676  -0.00541403  -0.00802152 *
*    I     565     -0.00329602   0.00544037  -0.00801858 *
*    I     566     -0.00616486  -0.00000203   0.01071320 *
*    I     567      0.00307303   0.00535037   0.01071044 *
*    I     568      0.00307804  -0.00536667   0.01070564 *
*    Cr    569      0.00007223  -0.00020304   0.00008460 *
*    Cr    570      0.00005493   0.00020998   0.00008363 *
*    I     571      0.00615987   0.00000539  -0.01071352 *
*    I     572     -0.00307350  -0.00534920  -0.01070968 *
*    I     573     -0.00308290   0.00536470  -0.01070458 *
*    I     574     -0.00598639  -0.00000284   0.00869074 *
*    I     575      0.00328609   0.00541491   0.00801900 *
*    I     576      0.00329249  -0.00543625   0.00801444 *
*                                                        *
**********************************************************
* TOTAL:           -0.00000000   0.00000000   0.00000000 *
**********************************************************
 
 
***********************************************************
********** Summary of Forces (values in Eh/a) *************
*                                                         *
* ---------------------- Minimum ------------------------ *
* Atom:       482, |F|min =    0.00016707                 *
* Components:     Fx|min       Fy|min       Fz|min        *
*               0.00001700   0.00014730  -0.00007699      *
*                                                         *
* ---------------------- Maximum ------------------------ *
* Atom:       472, |F|max =    0.01236797                 *
* Components:     Fx|max       Fy|max       Fz|max        *
*               0.00307623  -0.00537106   0.01070771      *
*                                                         *
* ---------------- Root Mean Square Force --------------- *
*                  |F|rms =    0.00986788                 *
* Components:     Fx|rms       Fy|rms       Fz|rms        *
*               0.00378151   0.00381437   0.00827803      *
***********************************************************
 

------------------------------ TIMING INFORMATION ------------------------------
AVERAGE TIME:   48266.967s on    150 proc(s)                                    
TOTAL TIME:     48266.967s on    150 proc(s)                                    
==================== AVERAGE TIMINGS FROM ALL PROCS (CUMULATIVE) =====================
|| TAG                                         #calls     cpu time   %total  Gflops ||
|| hubbard_species_proj                       :     1        0.00s   0.000%  ------ ||
|| sw_bessel_init_cpu                         :     1        0.01s   0.000%  ------ || (1 procs only)
|| hash_table_free                            :    61        0.00s   0.000%  ------ ||
|| hubbard_ngwf_select                        :     1        0.00s   0.000%  ------ ||
|| hubbard_ngwf_on_grid                       :     1        0.00s   0.000%  ------ ||
|| ewald_calculate_forces_realspace           :     1        0.00s   0.000%  ------ ||
|| density_fftbox_interp_mult_imbal           : 28600        0.00s   0.000%  ------ ||
|| onetep.F90 final imbalance                 :     1        0.00s   0.000%  ------ ||
|| hubbard_projector_character                :     1        0.00s   0.000%  ------ ||
|| linalg_dgemv                               :    25        0.02s   0.000%  ------ ||
|| linalg_invert_sym_matrix                   :     2        0.03s   0.000%  ------ || (144 procs only)
|| hubbard_tensorial_correction               :     2        0.03s   0.000%  ------ ||
|| sparse_set_to_garbage                      :   907        0.04s   0.000%  ------ ||
|| ewald_calculate_energy                     :     1        0.04s   0.000%  ------ ||
|| ewald_calculate_forces_recipspace          :     1        0.07s   0.000%  ------ ||
|| sparse_spam3toblacs_real_fast_imbal        :   198        0.08s   0.000%  ------ ||
|| sw_init                                    :  1143        0.08s   0.000%  ------ ||
|| sparse_blacstospam3_real_fast_imbal        :   212        0.10s   0.000%  ------ ||
|| ewald_calculate_forces                     :     1        0.14s   0.000%  ------ ||
|| paw_dij_hartree                            :   615        0.14s   0.000%  ------ ||
|| onetep.F90 main loop imbalance             :     1        0.15s   0.000%  ------ ||
|| pseudo_make_structure_factor               :     1        0.20s   0.000%  ------ ||
|| augmentation_density_forces                :     1        0.23s   0.000%  ------ ||
|| hubbard_projection_mtx                     :    63        0.38s   0.001%  ------ ||
|| paw_tcore_hartree_on_grid                  :     1        0.46s   0.001%  ------ ||
|| basis_extract_function_from_box            :  2784        0.49s   0.001%  ------ ||
|| sparse_spam3toblacs_real_fast_B2           : 29700        0.50s   0.001%  ------ ||
|| restart_hamiltonian_write                  :     2        0.52s   0.001%  ------ ||
|| paw_tcore_hartree_calc_forces              :     1        0.87s   0.002%  ------ ||
|| ngwfs_initialise_from_radial               :     2        1.35s   0.003%  ------ ||
|| paw_dataset_init                           :     2        1.52s   0.003%  ------ ||
|| paw_tcore_density                          :     1        1.56s   0.003%  ------ ||
|| paw_nlcc_calculate_forces                  :     1        1.62s   0.003%  ------ ||
|| nonsc_forces_ngwfs_calc                    :     1        1.65s   0.003%  ------ ||
|| paw_sphere_density_on_grid                 :     1        1.72s   0.004%  ------ ||
|| sparse_init                                :     1        2.21s   0.005%  ------ ||
|| paw_species_calc_proj_prec_mat             :     1        5.98s   0.012%  ------ ||
|| hubbard_ham_matrix                         :   261        6.41s   0.013%  ------ ||
|| sparse_embed_array_hotelling_invert        :    61        6.93s   0.014%  ------ ||
|| restart_kernel_write                       :    31        7.30s   0.015%  ------ ||
|| hubbard_projector_ham                      :   260        8.01s   0.017%  ------ ||
|| hubbard_calculate_forces                   :     1       10.60s   0.022%  ------ ||
|| integrals_grad_spam3                       :     2       12.18s   0.025%  ------ ||
|| energy_and_force_init_cell                 :     1       15.10s   0.031%  ------ ||
|| sparse_spam3toblacs_real_fast_B1           : 29700       15.52s   0.032%  ------ ||
|| sparse_spam3toblacs_real_fast              :   198       17.13s   0.035%  ------ ||
|| hubbard_projector_update                   :     1       17.19s   0.036%  ------ ||
|| hubbard_energy_total                       :   584       18.11s   0.038%  ------ ||
|| projectors_func_grad_ovlp_box_spam3        :     3       19.46s   0.040%  ------ ||
|| aug_nl_calculate_forces                    :     1       20.45s   0.042%  ------ ||
|| ngwf_gradient_coeffs                       :    29       26.67s   0.055%  ------ ||
|| fourier_filter_cell                        :   580       29.83s   0.062% 344.859 ||
|| sparse_blacstospam3_real_fast              :   212       31.68s   0.066%  ------ ||
|| sparse_trace                               : 17748       37.08s   0.077%  ------ ||
|| fourier_apply_box_pair                     :  3560       39.51s   0.082%  5.274k ||
|| hamiltonian_energy_components              :     1       40.49s   0.084%  ------ ||
|| eigenstates_calculate                      :     1       46.46s   0.096%  ------ ||
|| hartree_on_grid_single                     :   571       48.57s   0.101%  ------ ||
|| basis_copy_function_to_box                 : 42724       48.63s   0.101%  ------ ||
|| dense_eigensolve                           :    96       55.14s   0.114%  ------ ||
|| kernel_fix                                 :   243       62.98s   0.130%  ------ ||
|| fourier_interpolate_cell                   :  1144       63.50s   0.132% 319.511 ||
|| kernel_purify                              :   791       64.62s   0.134%  ------ ||
|| edft_diag_ngwf_ham                         :    94       70.16s   0.145%  ------ ||
|| lnv_gradient_norm                          :   243       74.77s   0.155%  ------ ||
|| density_init_guess_real                    :     2       76.96s   0.159%  ------ ||
|| edft_apply_smearing_operator               :    47      111.21s   0.230%  ------ ||
|| forces_calculate                           :     1      112.39s   0.233%  ------ ||
|| augmentation_screen_dij_spam3              :   570      115.24s   0.239%  ------ ||
|| projectors_init_fftbox_recip               :   477      171.69s   0.356%  ------ ||
|| paw_dij_xc                                 :   615      194.14s   0.402%  ------ ||
|| aug_nonlocal_mat_spam3_embed_array         :   585      198.29s   0.411%  ------ ||
|| fourier_apply_cell_backward                :  5140      223.72s   0.464% 366.502 ||
|| restart_ngwfs_tightbox_output              :    28      254.66s   0.528%  ------ ||
|| cell_grid_deposit_box_real                 : 36106      257.78s   0.534%  ------ ||
|| cell_grid_extract_box_real                 : 21916      283.96s   0.588%  ------ ||
|| function_ops_brappd_ketppd_spam3           :   124      284.65s   0.590%  ------ ||
|| fourier_apply_cell_forward                 :  5140      303.55s   0.629% 270.120 ||
|| fourier_filter                             :  7906      309.49s   0.641%  ------ ||
|| sparse_product                             : 33795      384.40s   0.796%  ------ ||
|| aug_density_on_grid_spam3                  :   572      401.49s   0.832%  ------ ||
|| projectors_func_ovlp_box_spam3             :   125      481.14s   0.997%  ------ ||
|| properties_calculate                       :     1      518.08s   1.073%  ------ ||
|| xc_energy_potential                        :   571      534.33s   1.107%  ------ ||
|| fourier_interpolate                        :  7906      640.14s   1.326%  ------ ||
|| integrals_kinetic_spam3                    :    61      661.08s   1.370%  ------ ||
|| density_fftbox_deposit_to_cell             : 28600     1329.14s   2.754%  ------ ||
|| basis_dot_function_with_box                : 24.01M    1796.65s   3.722%  ------ ||
|| projectors_gradient_batch                  :   232     2088.40s   4.327%  ------ ||
|| edft_calculate                             :     1     2608.32s   5.404%  ------ ||
|| potential_apply_to_ngwf_batch              :  1044     3382.52s   7.008%  ------ ||
|| fourier_apply_box                          : 124.2k    4835.89s  10.019%  5.485k ||
|| basis_add_function_to_box                  : 57.62M    4880.03s  10.110%  ------ ||
|| integrals_locpot_mat_els_batch             :  1044     5312.87s  11.007%  ------ ||
|| fourier_interpolate_product                : 27456     5478.02s  11.349%  ------ ||
|| density_fftbox_interpolate_multiply        : 28600     5721.99s  11.855%  ------ ||
|| projectors_grad_precond_batch              :   116     6304.15s  13.061%  ------ ||
|| integrals_locpot_dbl_grid                  :   522     8698.09s  18.021%  ------ ||
|| ngwf_gradient_build_batch                  :   116     9506.09s  19.695%  ------ ||
|| density_batch_interp_deposit               :  2288    10147.16s  21.023%  ------ ||
|| density_batch_row_sums                     :  2288    11010.94s  22.813%  ------ ||
|| ngwf_gradient_batch                        :   116    13084.39s  27.108%  ------ ||
|| ngwf_gradient_lnv                          :    29    13410.14s  27.783%  ------ ||
|| density_on_dbl_grid                        :  1144    21369.76s  44.274%  ------ ||
|| hamiltonian_lhxc_calculate                 :   568    22665.77s  46.959%  ------ ||
|| lnv_denskernel_optimise_cg                 :    29    28029.15s  58.071%  ------ ||
|| ngwf_cg_optimise                           :     1    44824.57s  92.868%  ------ ||
|| energy_and_forces                          :     1    48250.27s  99.965%  ------ ||
|| total_time                                 :     1    48266.97s 100.000%  ------ ||
======================================================================================
Overhead of generating timer report: 
- 0 ms averaging over threads,
- 12 ms ensuring consistency across MPI ranks,
- 6 ms printing in order.

Job completed: 26-04-2025 23:39 (+0100)

onetep_launcher: ONETEP seems to have finished correctly (zero exit code).
                 Brought to you by PID 119427 on nid001170.
