==================================================================================
It's Mon 28 Apr 2025 10:24:36 AM BST.
*** Starting onetep_launcher (node nid006371, PIDs 27523 27524 27525 27526 27527 27528 27529 27530 27531 27532 27533 27534 27535 27536 27537 27538 27539 27540 27541 27542 27543 27544 27545 27546 27547 27548 27549 27550 27551 27552 27553 27554)...
    - ONETEP arguments: Co.dat
    - Current directory: /mnt/lustre/a2fs-work3/work/e89/e89/phsmea/Co_bulk_single_point/sp
    - Launcher executable directory: /mnt/lustre/a2fs-work3/work/e89/e89/phsmea/Co_bulk_single_point
    - (-e) ONETEP executable specified through command-line: /work/e89/e89/phsmea/onetep.archer2_2024_cray_2
      ... trying /work/e89/e89/phsmea/onetep.archer2_2024_cray_2
          -> looks OK
*** Setting up environment...
    - (-s) Process stack size: unlimited
    - (-t) OMP_NUM_THREADS: 4
    - (-o) OMP_STACKSIZE: 64M
    - (-c) Maximum core file size: 2048000
    - (-d) decfort_dump_flag: n
    - (-m) I_MPI_OFA_TRANSLATION_CACHE: 0
    - (-m) I_MPI_DAPL_TRANSLATION_CACHE: 0
    - (-m) I_MPI_DAPL_UD_TRANSLATION_CACHE: 0
*** Starting ONETEP...
    - /work/e89/e89/phsmea/onetep.archer2_2024_cray_2 Co.dat
=================================================================================
_________________________________________________________________________________
 +---------------------------------------------------------------+
 |                                                               |
 |        ####### #     # ####### ####### ####### ######         |
 |        #     # ##    # #          #    #       #     #        |
 |        #     # # #   # #          #    #       #     #        |
 |        #     # #  #  # #####      #    #####   ######         |
 |        #     # #   # # #          #    #       #              |
 |        #     # #    ## #          #    #       #              |
 |        ####### #     # #######    #    ####### #              |
 |                                                               |
 |        Linear-Scaling Ab Initio Total Energy Program          |
 |                                                               |
 |          Release for academic collaborators of ODG            |
 |                                             Version 7.3.0     |
 | Remote: git@github.com:Miesaz/onetep_mea.git                  |
 | Local branch: master                                          |
 | Commit ID: 4af45e89288c8df5499704252eec3e032ee3d0c8           |
 | Date: Tue Aug 6 11:28:44 2024 +0100                           |
 | Locally modified files:                                       |
 |   src/hubbard_build_mod.F90                                   |
 |   src/services_mod.F90                                        |
 |                                                               |
 +---------------------------------------------------------------+
 |                                                               |
 |  Authors:                                                     |
 |  Jacek Dziedzic, Peter D. Haynes, Nicholas D. M. Hine,        |
 |  Arash A. Mostofi, Mike C. Payne and Chris-Kriton Skylaris    |
 |                                                               |
 |  Contributors:                                                |
 |  J. Aarons, L. Andrinopoulos, P. W. Avraam, R. A. Bell,       |
 |  A. Bhandari, G. A. Bramley, R. J. Charlton, S. J. Clark,     |
 |  R. J. Clements, G. C. Constantinescu, F. Corsetti,           |
 |  N. Corsini, O. Dieguez, S. M. M. Dubois, K. K. B. Duff,      |
 |  J. M. Escartin, M. Escobar Azor, A. Greco,                   |
 |  H. Helal, Q. O. Hill, L. P. Lee, J.-H. Li,                   |
 |  T. Li, E. B. Linscott, G. Moynihan, D. D. O`Regan,           |
 |  O. K. Okan, E. Parkinson, M. J. S. Phipps,                   |
 |  C. J. Pickard, J. C. A. Prentice, M. I. J. Probert,          |
 |  L. E. Ratcliff, M. Robinson, A. Ruiz Serrano,                |
 |  M. dos Santos Dias, J. S. Spencer, E. W. Tait,               |
 |  G. Teobaldi, D. Turban, V. Vitale, K. A. Wilkinson,          |
 |  C. Weber, J. C. Womack, Chengcheng Xiao, N. Yeung,           |
 |  and T. J. Zuehlsdorff.                                       |
 |                                                               |
 |                                   Copyright (c) 2004-2025     |
 |                                                               |
 |  Please cite:                                                 |
 |  "The ONETEP linear-scaling density functional theory program"|
 |   J. Chem. Phys. 152(17) 174111 (2020)                        |
 |                                                               |
 |          in all publications arising from your use of ONETEP. |
 |                                                               |
 +---------------------------------------------------------------+
 |                                                               |
 |   ONETEP is based on developments described in the following  |
 |   publications:                                               |
 |                                                               |
 |  "Nonorthogonal generalized Wannier function pseudopotential  |
 |   plane-wave method".                                         |
 |   C.-K. Skylaris, A. A. Mostofi, P. D. Haynes, O. Dieguez,    |
 |   M. C. Payne.                                                |
 |   Phys. Rev. B 66 035119 (2002).                              |
 |                                                               |
 |  "Preconditioned iterative minimization for linear-scaling    |
 |   electronic structure calculations".                         |
 |   A. A. Mostofi, P. D. Haynes, C.-K. Skylaris, M. C. Payne.   |
 |   J. Chem. Phys. 119(17), pp.8842-8848 (2003).                |
 |                                                               |
 |  "Total-energy calculations on a real space grid with         |
 |   localized functions and a plane-wave basis".                |
 |   A. A. Mostofi, C.-K. Skylaris, P. D. Haynes, M. C. Payne.   |
 |   Comput. Phys. Commun. 147, pp.788-802 (2002).               |
 |                                                               |
 |  "Accurate kinetic energy evaluation in electronic structure  |
 |   calculations with localized functions on real space grids"  |
 |   C.-K. Skylaris, A. A. Mostofi, P. D. Haynes, C. J. Pickard, |
 |   M. C. Payne.                                                |
 |   Comput. Phys. Commun. 140, pp.315-322 (2001).               |
 |                                                               |
 |  "Accurate ionic forces and geometry optimization in linear-  |
 |   scaling density-functional theory with local orbitals"      |
 |   N. D. M. Hine, M. Robinson, P. D. Haynes, C.-K. Skylaris,   |
 |   M. C. Payne, and A. A. Mostofi.                             |
 |   Phys. Rev. B 83 195102 (2011).                              |
 |                                                               |
 +---------------------------------------------------------------+

Job started: 28-04-2025 10:24 (+0100)
 
Reading parameters from file "Co.dat" ...... done

If your calculation crashes here, before "Checking processes and threads..."
is displayed, then your stack size is insufficient.
If so, use "ulimit -s unlimited" at runtime.
You can disable this check with "check_stack_size F".

Checking processes and threads...
      Default threads: 4
   Running with 320 MPI processes.
   There are 32 MPI processes running on the same node as the root process.
   Each MPI process is using: 
               1 threads for simulation cell FFTs.
               1 threads for threaded FFT box operations.
               4 threads for loops over batched FFT box operations.
               4 threads in other parallel regions.
   MPI Interface: S1 (use mpi_f08) (-DMPI -DUSE_MPI_F08).
   MPI_ASYNC_PROTECTS_NONBLOCKING: Yes. MPI_SUBARRAYS_SUPPORTED: Yes.
   FFTW Interface: OMP-capable and MODERN. (-DUSE_MODERN_FFTW specified).
   GPU Interface: None.
   GPU FFT Backend: None.
... done

Basic input checks...
Resetting ngwf_cg_rotate to TRUE for EDFT calculations
... done

Reading geometry and species blocks from file "Co.dat" ...... done


--------------------------------------------------------------------------------
---------------------------------- INPUT FILE ----------------------------------
--------------------------------------------------------------------------------

charge : 0                                                                      
cutoff_energy : 600 eV                                                          
do_properties : T                                                               
edft : T                                                                        
edft_maxit : 15                                                                 
edft_spin_fix : 0                                                               
fine_grid_scale : 4                                                             
geom_continuation : F                                                           
maxit_ngwf_cg : 100                                                             
ngwf_threshold_orig : 1e-07                                                     
ngwfs_spin_polarized : T                                                        
paw : T                                                                         
pseudo_path : ..                                                                
read_denskern : T                                                               
read_hamiltonian : F                                                            
read_tightbox_ngwfs : T                                                         
spin : 2592                                                                     
spin_polarized : T                                                              
task : SinglePoint                                                              
write_denskern : T                                                              
write_forces : T                                                                
write_hamiltonian : T                                                           
write_tightbox_ngwfs : T                                                        
xc_functional : PBE                                                             
%BLOCK LATTICE_CART                                                             
ang                                                                             
14.99119730     0.00000000    0.00000000                                        
0.00000000    25.95883166    0.00000000                                         
0.00000000     0.00000000   24.23272929                                         
%ENDBLOCK LATTICE_CART                                                          
%BLOCK POSITIONS_ABS                                                            
ang                                                                             
Co       0.00000000       0.00000000       0.00000000                           
Co       0.00000000       1.44216649       2.01939411                           
Co       1.24926644       2.16323321       0.00000000                           
Co       1.24926644       3.60540968       2.01939411                           
Co       0.00000000       0.00000000       4.03878822                           
Co       0.00000000       1.44216649       6.05818233                           
Co       1.24926644       2.16323321       4.03878822                           
Co       1.24926644       3.60540968       6.05818233                           
Co       0.00000000       0.00000000       8.07757643                           
Co       0.00000000       1.44216649      10.09697054                           
Co       1.24926644       2.16323321       8.07757643                           
Co       1.24926644       3.60540968      10.09697054                           
Co       0.00000000       0.00000000      12.11636465                           
Co       0.00000000       1.44216649      14.13575876                           
Co       1.24926644       2.16323321      12.11636465                           
Co       1.24926644       3.60540968      14.13575876                           
Co       0.00000000       0.00000000      16.15515286                           
Co       0.00000000       1.44216649      18.17454697                           
Co       1.24926644       2.16323321      16.15515286                           
Co       1.24926644       3.60540968      18.17454697                           
Co       0.00000000       0.00000000      20.19394108                           
Co       0.00000000       1.44216649      22.21333519                           
Co       1.24926644       2.16323321      20.19394108                           
Co       1.24926644       3.60540968      22.21333519                           
Co       0.00000000       4.32647194       0.00000000                           
Co       0.00000000       5.76863843       2.01939411                           
Co       1.24926644       6.48970515       0.00000000                           
Co       1.24926644       7.93188162       2.01939411                           
Co       0.00000000       4.32647194       4.03878822                           
Co       0.00000000       5.76863843       6.05818233                           
Co       1.24926644       6.48970515       4.03878822                           
Co       1.24926644       7.93188162       6.05818233                           
Co       0.00000000       4.32647194       8.07757643                           
Co       0.00000000       5.76863843      10.09697054                           
Co       1.24926644       6.48970515       8.07757643                           
Co       1.24926644       7.93188162      10.09697054                           
Co       0.00000000       4.32647194      12.11636465                           
Co       0.00000000       5.76863843      14.13575876                           
Co       1.24926644       6.48970515      12.11636465                           
Co       1.24926644       7.93188162      14.13575876                           
Co       0.00000000       4.32647194      16.15515286                           
Co       0.00000000       5.76863843      18.17454697                           
Co       1.24926644       6.48970515      16.15515286                           
Co       1.24926644       7.93188162      18.17454697                           
Co       0.00000000       4.32647194      20.19394108                           
Co       0.00000000       5.76863843      22.21333519                           
Co       1.24926644       6.48970515      20.19394108                           
Co       1.24926644       7.93188162      22.21333519                           
Co       0.00000000       8.65294389       0.00000000                           
Co       0.00000000      10.09511038       2.01939411                           
Co       1.24926644      10.81617710       0.00000000                           
Co       1.24926644      12.25835357       2.01939411                           
Co       0.00000000       8.65294389       4.03878822                           
Co       0.00000000      10.09511038       6.05818233                           
Co       1.24926644      10.81617710       4.03878822                           
Co       1.24926644      12.25835357       6.05818233                           
Co       0.00000000       8.65294389       8.07757643                           
Co       0.00000000      10.09511038      10.09697054                           
Co       1.24926644      10.81617710       8.07757643                           
Co       1.24926644      12.25835357      10.09697054                           
Co       0.00000000       8.65294389      12.11636465                           
Co       0.00000000      10.09511038      14.13575876                           
Co       1.24926644      10.81617710      12.11636465                           
Co       1.24926644      12.25835357      14.13575876                           
Co       0.00000000       8.65294389      16.15515286                           
Co       0.00000000      10.09511038      18.17454697                           
Co       1.24926644      10.81617710      16.15515286                           
Co       1.24926644      12.25835357      18.17454697                           
Co       0.00000000       8.65294389      20.19394108                           
Co       0.00000000      10.09511038      22.21333519                           
Co       1.24926644      10.81617710      20.19394108                           
Co       1.24926644      12.25835357      22.21333519                           
Co       0.00000000      12.97941583       0.00000000                           
Co       0.00000000      14.42158232       2.01939411                           
Co       1.24926644      15.14264904       0.00000000                           
Co       1.24926644      16.58482551       2.01939411                           
Co       0.00000000      12.97941583       4.03878822                           
Co       0.00000000      14.42158232       6.05818233                           
Co       1.24926644      15.14264904       4.03878822                           
Co       1.24926644      16.58482551       6.05818233                           
Co       0.00000000      12.97941583       8.07757643                           
Co       0.00000000      14.42158232      10.09697054                           
Co       1.24926644      15.14264904       8.07757643                           
Co       1.24926644      16.58482551      10.09697054                           
Co       0.00000000      12.97941583      12.11636465                           
Co       0.00000000      14.42158232      14.13575876                           
Co       1.24926644      15.14264904      12.11636465                           
Co       1.24926644      16.58482551      14.13575876                           
Co       0.00000000      12.97941583      16.15515286                           
Co       0.00000000      14.42158232      18.17454697                           
Co       1.24926644      15.14264904      16.15515286                           
Co       1.24926644      16.58482551      18.17454697                           
Co       0.00000000      12.97941583      20.19394108                           
Co       0.00000000      14.42158232      22.21333519                           
Co       1.24926644      15.14264904      20.19394108                           
Co       1.24926644      16.58482551      22.21333519                           
Co       0.00000000      17.30588777       0.00000000                           
Co       0.00000000      18.74805426       2.01939411                           
Co       1.24926644      19.46912098       0.00000000                           
Co       1.24926644      20.91129745       2.01939411                           
Co       0.00000000      17.30588777       4.03878822                           
Co       0.00000000      18.74805426       6.05818233                           
Co       1.24926644      19.46912098       4.03878822                           
Co       1.24926644      20.91129745       6.05818233                           
Co       0.00000000      17.30588777       8.07757643                           
Co       0.00000000      18.74805426      10.09697054                           
Co       1.24926644      19.46912098       8.07757643                           
Co       1.24926644      20.91129745      10.09697054                           
Co       0.00000000      17.30588777      12.11636465                           
Co       0.00000000      18.74805426      14.13575876                           
Co       1.24926644      19.46912098      12.11636465                           
Co       1.24926644      20.91129745      14.13575876                           
Co       0.00000000      17.30588777      16.15515286                           
Co       0.00000000      18.74805426      18.17454697                           
Co       1.24926644      19.46912098      16.15515286                           
Co       1.24926644      20.91129745      18.17454697                           
Co       0.00000000      17.30588777      20.19394108                           
Co       0.00000000      18.74805426      22.21333519                           
Co       1.24926644      19.46912098      20.19394108                           
Co       1.24926644      20.91129745      22.21333519                           
Co       0.00000000      21.63235971       0.00000000                           
Co       0.00000000      23.07452620       2.01939411                           
Co       1.24926644      23.79559293       0.00000000                           
Co       1.24926644      25.23776940       2.01939411                           
Co       0.00000000      21.63235971       4.03878822                           
Co       0.00000000      23.07452620       6.05818233                           
Co       1.24926644      23.79559293       4.03878822                           
Co       1.24926644      25.23776940       6.05818233                           
Co       0.00000000      21.63235971       8.07757643                           
Co       0.00000000      23.07452620      10.09697054                           
Co       1.24926644      23.79559293       8.07757643                           
Co       1.24926644      25.23776940      10.09697054                           
Co       0.00000000      21.63235971      12.11636465                           
Co       0.00000000      23.07452620      14.13575876                           
Co       1.24926644      23.79559293      12.11636465                           
Co       1.24926644      25.23776940      14.13575876                           
Co       0.00000000      21.63235971      16.15515286                           
Co       0.00000000      23.07452620      18.17454697                           
Co       1.24926644      23.79559293      16.15515286                           
Co       1.24926644      25.23776940      18.17454697                           
Co       0.00000000      21.63235971      20.19394108                           
Co       0.00000000      23.07452620      22.21333519                           
Co       1.24926644      23.79559293      20.19394108                           
Co       1.24926644      25.23776940      22.21333519                           
Co       2.49853288       0.00000000       0.00000000                           
Co       2.49853288       1.44216649       2.01939411                           
Co       3.74779932       2.16323321       0.00000000                           
Co       3.74779932       3.60540968       2.01939411                           
Co       2.49853288       0.00000000       4.03878822                           
Co       2.49853288       1.44216649       6.05818233                           
Co       3.74779932       2.16323321       4.03878822                           
Co       3.74779932       3.60540968       6.05818233                           
Co       2.49853288       0.00000000       8.07757643                           
Co       2.49853288       1.44216649      10.09697054                           
Co       3.74779932       2.16323321       8.07757643                           
Co       3.74779932       3.60540968      10.09697054                           
Co       2.49853288       0.00000000      12.11636465                           
Co       2.49853288       1.44216649      14.13575876                           
Co       3.74779932       2.16323321      12.11636465                           
Co       3.74779932       3.60540968      14.13575876                           
Co       2.49853288       0.00000000      16.15515286                           
Co       2.49853288       1.44216649      18.17454697                           
Co       3.74779932       2.16323321      16.15515286                           
Co       3.74779932       3.60540968      18.17454697                           
Co       2.49853288       0.00000000      20.19394108                           
Co       2.49853288       1.44216649      22.21333519                           
Co       3.74779932       2.16323321      20.19394108                           
Co       3.74779932       3.60540968      22.21333519                           
Co       2.49853288       4.32647194       0.00000000                           
Co       2.49853288       5.76863843       2.01939411                           
Co       3.74779932       6.48970515       0.00000000                           
Co       3.74779932       7.93188162       2.01939411                           
Co       2.49853288       4.32647194       4.03878822                           
Co       2.49853288       5.76863843       6.05818233                           
Co       3.74779932       6.48970515       4.03878822                           
Co       3.74779932       7.93188162       6.05818233                           
Co       2.49853288       4.32647194       8.07757643                           
Co       2.49853288       5.76863843      10.09697054                           
Co       3.74779932       6.48970515       8.07757643                           
Co       3.74779932       7.93188162      10.09697054                           
Co       2.49853288       4.32647194      12.11636465                           
Co       2.49853288       5.76863843      14.13575876                           
Co       3.74779932       6.48970515      12.11636465                           
Co       3.74779932       7.93188162      14.13575876                           
Co       2.49853288       4.32647194      16.15515286                           
Co       2.49853288       5.76863843      18.17454697                           
Co       3.74779932       6.48970515      16.15515286                           
Co       3.74779932       7.93188162      18.17454697                           
Co       2.49853288       4.32647194      20.19394108                           
Co       2.49853288       5.76863843      22.21333519                           
Co       3.74779932       6.48970515      20.19394108                           
Co       3.74779932       7.93188162      22.21333519                           
Co       2.49853288       8.65294389       0.00000000                           
Co       2.49853288      10.09511038       2.01939411                           
Co       3.74779932      10.81617710       0.00000000                           
Co       3.74779932      12.25835357       2.01939411                           
Co       2.49853288       8.65294389       4.03878822                           
Co       2.49853288      10.09511038       6.05818233                           
Co       3.74779932      10.81617710       4.03878822                           
Co       3.74779932      12.25835357       6.05818233                           
Co       2.49853288       8.65294389       8.07757643                           
Co       2.49853288      10.09511038      10.09697054                           
Co       3.74779932      10.81617710       8.07757643                           
Co       3.74779932      12.25835357      10.09697054                           
Co       2.49853288       8.65294389      12.11636465                           
Co       2.49853288      10.09511038      14.13575876                           
Co       3.74779932      10.81617710      12.11636465                           
Co       3.74779932      12.25835357      14.13575876                           
Co       2.49853288       8.65294389      16.15515286                           
Co       2.49853288      10.09511038      18.17454697                           
Co       3.74779932      10.81617710      16.15515286                           
Co       3.74779932      12.25835357      18.17454697                           
Co       2.49853288       8.65294389      20.19394108                           
Co       2.49853288      10.09511038      22.21333519                           
Co       3.74779932      10.81617710      20.19394108                           
Co       3.74779932      12.25835357      22.21333519                           
Co       2.49853288      12.97941583       0.00000000                           
Co       2.49853288      14.42158232       2.01939411                           
Co       3.74779932      15.14264904       0.00000000                           
Co       3.74779932      16.58482551       2.01939411                           
Co       2.49853288      12.97941583       4.03878822                           
Co       2.49853288      14.42158232       6.05818233                           
Co       3.74779932      15.14264904       4.03878822                           
Co       3.74779932      16.58482551       6.05818233                           
Co       2.49853288      12.97941583       8.07757643                           
Co       2.49853288      14.42158232      10.09697054                           
Co       3.74779932      15.14264904       8.07757643                           
Co       3.74779932      16.58482551      10.09697054                           
Co       2.49853288      12.97941583      12.11636465                           
Co       2.49853288      14.42158232      14.13575876                           
Co       3.74779932      15.14264904      12.11636465                           
Co       3.74779932      16.58482551      14.13575876                           
Co       2.49853288      12.97941583      16.15515286                           
Co       2.49853288      14.42158232      18.17454697                           
Co       3.74779932      15.14264904      16.15515286                           
Co       3.74779932      16.58482551      18.17454697                           
Co       2.49853288      12.97941583      20.19394108                           
Co       2.49853288      14.42158232      22.21333519                           
Co       3.74779932      15.14264904      20.19394108                           
Co       3.74779932      16.58482551      22.21333519                           
Co       2.49853288      17.30588777       0.00000000                           
Co       2.49853288      18.74805426       2.01939411                           
Co       3.74779932      19.46912098       0.00000000                           
Co       3.74779932      20.91129745       2.01939411                           
Co       2.49853288      17.30588777       4.03878822                           
Co       2.49853288      18.74805426       6.05818233                           
Co       3.74779932      19.46912098       4.03878822                           
Co       3.74779932      20.91129745       6.05818233                           
Co       2.49853288      17.30588777       8.07757643                           
Co       2.49853288      18.74805426      10.09697054                           
Co       3.74779932      19.46912098       8.07757643                           
Co       3.74779932      20.91129745      10.09697054                           
Co       2.49853288      17.30588777      12.11636465                           
Co       2.49853288      18.74805426      14.13575876                           
Co       3.74779932      19.46912098      12.11636465                           
Co       3.74779932      20.91129745      14.13575876                           
Co       2.49853288      17.30588777      16.15515286                           
Co       2.49853288      18.74805426      18.17454697                           
Co       3.74779932      19.46912098      16.15515286                           
Co       3.74779932      20.91129745      18.17454697                           
Co       2.49853288      17.30588777      20.19394108                           
Co       2.49853288      18.74805426      22.21333519                           
Co       3.74779932      19.46912098      20.19394108                           
Co       3.74779932      20.91129745      22.21333519                           
Co       2.49853288      21.63235971       0.00000000                           
Co       2.49853288      23.07452620       2.01939411                           
Co       3.74779932      23.79559293       0.00000000                           
Co       3.74779932      25.23776940       2.01939411                           
Co       2.49853288      21.63235971       4.03878822                           
Co       2.49853288      23.07452620       6.05818233                           
Co       3.74779932      23.79559293       4.03878822                           
Co       3.74779932      25.23776940       6.05818233                           
Co       2.49853288      21.63235971       8.07757643                           
Co       2.49853288      23.07452620      10.09697054                           
Co       3.74779932      23.79559293       8.07757643                           
Co       3.74779932      25.23776940      10.09697054                           
Co       2.49853288      21.63235971      12.11636465                           
Co       2.49853288      23.07452620      14.13575876                           
Co       3.74779932      23.79559293      12.11636465                           
Co       3.74779932      25.23776940      14.13575876                           
Co       2.49853288      21.63235971      16.15515286                           
Co       2.49853288      23.07452620      18.17454697                           
Co       3.74779932      23.79559293      16.15515286                           
Co       3.74779932      25.23776940      18.17454697                           
Co       2.49853288      21.63235971      20.19394108                           
Co       2.49853288      23.07452620      22.21333519                           
Co       3.74779932      23.79559293      20.19394108                           
Co       3.74779932      25.23776940      22.21333519                           
Co       4.99706577       0.00000000       0.00000000                           
Co       4.99706577       1.44216649       2.01939411                           
Co       6.24633221       2.16323321       0.00000000                           
Co       6.24633221       3.60540968       2.01939411                           
Co       4.99706577       0.00000000       4.03878822                           
Co       4.99706577       1.44216649       6.05818233                           
Co       6.24633221       2.16323321       4.03878822                           
Co       6.24633221       3.60540968       6.05818233                           
Co       4.99706577       0.00000000       8.07757643                           
Co       4.99706577       1.44216649      10.09697054                           
Co       6.24633221       2.16323321       8.07757643                           
Co       6.24633221       3.60540968      10.09697054                           
Co       4.99706577       0.00000000      12.11636465                           
Co       4.99706577       1.44216649      14.13575876                           
Co       6.24633221       2.16323321      12.11636465                           
Co       6.24633221       3.60540968      14.13575876                           
Co       4.99706577       0.00000000      16.15515286                           
Co       4.99706577       1.44216649      18.17454697                           
Co       6.24633221       2.16323321      16.15515286                           
Co       6.24633221       3.60540968      18.17454697                           
Co       4.99706577       0.00000000      20.19394108                           
Co       4.99706577       1.44216649      22.21333519                           
Co       6.24633221       2.16323321      20.19394108                           
Co       6.24633221       3.60540968      22.21333519                           
Co       4.99706577       4.32647194       0.00000000                           
Co       4.99706577       5.76863843       2.01939411                           
Co       6.24633221       6.48970515       0.00000000                           
Co       6.24633221       7.93188162       2.01939411                           
Co       4.99706577       4.32647194       4.03878822                           
Co       4.99706577       5.76863843       6.05818233                           
Co       6.24633221       6.48970515       4.03878822                           
Co       6.24633221       7.93188162       6.05818233                           
Co       4.99706577       4.32647194       8.07757643                           
Co       4.99706577       5.76863843      10.09697054                           
Co       6.24633221       6.48970515       8.07757643                           
Co       6.24633221       7.93188162      10.09697054                           
Co       4.99706577       4.32647194      12.11636465                           
Co       4.99706577       5.76863843      14.13575876                           
Co       6.24633221       6.48970515      12.11636465                           
Co       6.24633221       7.93188162      14.13575876                           
Co       4.99706577       4.32647194      16.15515286                           
Co       4.99706577       5.76863843      18.17454697                           
Co       6.24633221       6.48970515      16.15515286                           
Co       6.24633221       7.93188162      18.17454697                           
Co       4.99706577       4.32647194      20.19394108                           
Co       4.99706577       5.76863843      22.21333519                           
Co       6.24633221       6.48970515      20.19394108                           
Co       6.24633221       7.93188162      22.21333519                           
Co       4.99706577       8.65294389       0.00000000                           
Co       4.99706577      10.09511038       2.01939411                           
Co       6.24633221      10.81617710       0.00000000                           
Co       6.24633221      12.25835357       2.01939411                           
Co       4.99706577       8.65294389       4.03878822                           
Co       4.99706577      10.09511038       6.05818233                           
Co       6.24633221      10.81617710       4.03878822                           
Co       6.24633221      12.25835357       6.05818233                           
Co       4.99706577       8.65294389       8.07757643                           
Co       4.99706577      10.09511038      10.09697054                           
Co       6.24633221      10.81617710       8.07757643                           
Co       6.24633221      12.25835357      10.09697054                           
Co       4.99706577       8.65294389      12.11636465                           
Co       4.99706577      10.09511038      14.13575876                           
Co       6.24633221      10.81617710      12.11636465                           
Co       6.24633221      12.25835357      14.13575876                           
Co       4.99706577       8.65294389      16.15515286                           
Co       4.99706577      10.09511038      18.17454697                           
Co       6.24633221      10.81617710      16.15515286                           
Co       6.24633221      12.25835357      18.17454697                           
Co       4.99706577       8.65294389      20.19394108                           
Co       4.99706577      10.09511038      22.21333519                           
Co       6.24633221      10.81617710      20.19394108                           
Co       6.24633221      12.25835357      22.21333519                           
Co       4.99706577      12.97941583       0.00000000                           
Co       4.99706577      14.42158232       2.01939411                           
Co       6.24633221      15.14264904       0.00000000                           
Co       6.24633221      16.58482551       2.01939411                           
Co       4.99706577      12.97941583       4.03878822                           
Co       4.99706577      14.42158232       6.05818233                           
Co       6.24633221      15.14264904       4.03878822                           
Co       6.24633221      16.58482551       6.05818233                           
Co       4.99706577      12.97941583       8.07757643                           
Co       4.99706577      14.42158232      10.09697054                           
Co       6.24633221      15.14264904       8.07757643                           
Co       6.24633221      16.58482551      10.09697054                           
Co       4.99706577      12.97941583      12.11636465                           
Co       4.99706577      14.42158232      14.13575876                           
Co       6.24633221      15.14264904      12.11636465                           
Co       6.24633221      16.58482551      14.13575876                           
Co       4.99706577      12.97941583      16.15515286                           
Co       4.99706577      14.42158232      18.17454697                           
Co       6.24633221      15.14264904      16.15515286                           
Co       6.24633221      16.58482551      18.17454697                           
Co       4.99706577      12.97941583      20.19394108                           
Co       4.99706577      14.42158232      22.21333519                           
Co       6.24633221      15.14264904      20.19394108                           
Co       6.24633221      16.58482551      22.21333519                           
Co       4.99706577      17.30588777       0.00000000                           
Co       4.99706577      18.74805426       2.01939411                           
Co       6.24633221      19.46912098       0.00000000                           
Co       6.24633221      20.91129745       2.01939411                           
Co       4.99706577      17.30588777       4.03878822                           
Co       4.99706577      18.74805426       6.05818233                           
Co       6.24633221      19.46912098       4.03878822                           
Co       6.24633221      20.91129745       6.05818233                           
Co       4.99706577      17.30588777       8.07757643                           
Co       4.99706577      18.74805426      10.09697054                           
Co       6.24633221      19.46912098       8.07757643                           
Co       6.24633221      20.91129745      10.09697054                           
Co       4.99706577      17.30588777      12.11636465                           
Co       4.99706577      18.74805426      14.13575876                           
Co       6.24633221      19.46912098      12.11636465                           
Co       6.24633221      20.91129745      14.13575876                           
Co       4.99706577      17.30588777      16.15515286                           
Co       4.99706577      18.74805426      18.17454697                           
Co       6.24633221      19.46912098      16.15515286                           
Co       6.24633221      20.91129745      18.17454697                           
Co       4.99706577      17.30588777      20.19394108                           
Co       4.99706577      18.74805426      22.21333519                           
Co       6.24633221      19.46912098      20.19394108                           
Co       6.24633221      20.91129745      22.21333519                           
Co       4.99706577      21.63235971       0.00000000                           
Co       4.99706577      23.07452620       2.01939411                           
Co       6.24633221      23.79559293       0.00000000                           
Co       6.24633221      25.23776940       2.01939411                           
Co       4.99706577      21.63235971       4.03878822                           
Co       4.99706577      23.07452620       6.05818233                           
Co       6.24633221      23.79559293       4.03878822                           
Co       6.24633221      25.23776940       6.05818233                           
Co       4.99706577      21.63235971       8.07757643                           
Co       4.99706577      23.07452620      10.09697054                           
Co       6.24633221      23.79559293       8.07757643                           
Co       6.24633221      25.23776940      10.09697054                           
Co       4.99706577      21.63235971      12.11636465                           
Co       4.99706577      23.07452620      14.13575876                           
Co       6.24633221      23.79559293      12.11636465                           
Co       6.24633221      25.23776940      14.13575876                           
Co       4.99706577      21.63235971      16.15515286                           
Co       4.99706577      23.07452620      18.17454697                           
Co       6.24633221      23.79559293      16.15515286                           
Co       6.24633221      25.23776940      18.17454697                           
Co       4.99706577      21.63235971      20.19394108                           
Co       4.99706577      23.07452620      22.21333519                           
Co       6.24633221      23.79559293      20.19394108                           
Co       6.24633221      25.23776940      22.21333519                           
Co       7.49559865       0.00000000       0.00000000                           
Co       7.49559865       1.44216649       2.01939411                           
Co       8.74486509       2.16323321       0.00000000                           
Co       8.74486509       3.60540968       2.01939411                           
Co       7.49559865       0.00000000       4.03878822                           
Co       7.49559865       1.44216649       6.05818233                           
Co       8.74486509       2.16323321       4.03878822                           
Co       8.74486509       3.60540968       6.05818233                           
Co       7.49559865       0.00000000       8.07757643                           
Co       7.49559865       1.44216649      10.09697054                           
Co       8.74486509       2.16323321       8.07757643                           
Co       8.74486509       3.60540968      10.09697054                           
Co       7.49559865       0.00000000      12.11636465                           
Co       7.49559865       1.44216649      14.13575876                           
Co       8.74486509       2.16323321      12.11636465                           
Co       8.74486509       3.60540968      14.13575876                           
Co       7.49559865       0.00000000      16.15515286                           
Co       7.49559865       1.44216649      18.17454697                           
Co       8.74486509       2.16323321      16.15515286                           
Co       8.74486509       3.60540968      18.17454697                           
Co       7.49559865       0.00000000      20.19394108                           
Co       7.49559865       1.44216649      22.21333519                           
Co       8.74486509       2.16323321      20.19394108                           
Co       8.74486509       3.60540968      22.21333519                           
Co       7.49559865       4.32647194       0.00000000                           
Co       7.49559865       5.76863843       2.01939411                           
Co       8.74486509       6.48970515       0.00000000                           
Co       8.74486509       7.93188162       2.01939411                           
Co       7.49559865       4.32647194       4.03878822                           
Co       7.49559865       5.76863843       6.05818233                           
Co       8.74486509       6.48970515       4.03878822                           
Co       8.74486509       7.93188162       6.05818233                           
Co       7.49559865       4.32647194       8.07757643                           
Co       7.49559865       5.76863843      10.09697054                           
Co       8.74486509       6.48970515       8.07757643                           
Co       8.74486509       7.93188162      10.09697054                           
Co       7.49559865       4.32647194      12.11636465                           
Co       7.49559865       5.76863843      14.13575876                           
Co       8.74486509       6.48970515      12.11636465                           
Co       8.74486509       7.93188162      14.13575876                           
Co       7.49559865       4.32647194      16.15515286                           
Co       7.49559865       5.76863843      18.17454697                           
Co       8.74486509       6.48970515      16.15515286                           
Co       8.74486509       7.93188162      18.17454697                           
Co       7.49559865       4.32647194      20.19394108                           
Co       7.49559865       5.76863843      22.21333519                           
Co       8.74486509       6.48970515      20.19394108                           
Co       8.74486509       7.93188162      22.21333519                           
Co       7.49559865       8.65294389       0.00000000                           
Co       7.49559865      10.09511038       2.01939411                           
Co       8.74486509      10.81617710       0.00000000                           
Co       8.74486509      12.25835357       2.01939411                           
Co       7.49559865       8.65294389       4.03878822                           
Co       7.49559865      10.09511038       6.05818233                           
Co       8.74486509      10.81617710       4.03878822                           
Co       8.74486509      12.25835357       6.05818233                           
Co       7.49559865       8.65294389       8.07757643                           
Co       7.49559865      10.09511038      10.09697054                           
Co       8.74486509      10.81617710       8.07757643                           
Co       8.74486509      12.25835357      10.09697054                           
Co       7.49559865       8.65294389      12.11636465                           
Co       7.49559865      10.09511038      14.13575876                           
Co       8.74486509      10.81617710      12.11636465                           
Co       8.74486509      12.25835357      14.13575876                           
Co       7.49559865       8.65294389      16.15515286                           
Co       7.49559865      10.09511038      18.17454697                           
Co       8.74486509      10.81617710      16.15515286                           
Co       8.74486509      12.25835357      18.17454697                           
Co       7.49559865       8.65294389      20.19394108                           
Co       7.49559865      10.09511038      22.21333519                           
Co       8.74486509      10.81617710      20.19394108                           
Co       8.74486509      12.25835357      22.21333519                           
Co       7.49559865      12.97941583       0.00000000                           
Co       7.49559865      14.42158232       2.01939411                           
Co       8.74486509      15.14264904       0.00000000                           
Co       8.74486509      16.58482551       2.01939411                           
Co       7.49559865      12.97941583       4.03878822                           
Co       7.49559865      14.42158232       6.05818233                           
Co       8.74486509      15.14264904       4.03878822                           
Co       8.74486509      16.58482551       6.05818233                           
Co       7.49559865      12.97941583       8.07757643                           
Co       7.49559865      14.42158232      10.09697054                           
Co       8.74486509      15.14264904       8.07757643                           
Co       8.74486509      16.58482551      10.09697054                           
Co       7.49559865      12.97941583      12.11636465                           
Co       7.49559865      14.42158232      14.13575876                           
Co       8.74486509      15.14264904      12.11636465                           
Co       8.74486509      16.58482551      14.13575876                           
Co       7.49559865      12.97941583      16.15515286                           
Co       7.49559865      14.42158232      18.17454697                           
Co       8.74486509      15.14264904      16.15515286                           
Co       8.74486509      16.58482551      18.17454697                           
Co       7.49559865      12.97941583      20.19394108                           
Co       7.49559865      14.42158232      22.21333519                           
Co       8.74486509      15.14264904      20.19394108                           
Co       8.74486509      16.58482551      22.21333519                           
Co       7.49559865      17.30588777       0.00000000                           
Co       7.49559865      18.74805426       2.01939411                           
Co       8.74486509      19.46912098       0.00000000                           
Co       8.74486509      20.91129745       2.01939411                           
Co       7.49559865      17.30588777       4.03878822                           
Co       7.49559865      18.74805426       6.05818233                           
Co       8.74486509      19.46912098       4.03878822                           
Co       8.74486509      20.91129745       6.05818233                           
Co       7.49559865      17.30588777       8.07757643                           
Co       7.49559865      18.74805426      10.09697054                           
Co       8.74486509      19.46912098       8.07757643                           
Co       8.74486509      20.91129745      10.09697054                           
Co       7.49559865      17.30588777      12.11636465                           
Co       7.49559865      18.74805426      14.13575876                           
Co       8.74486509      19.46912098      12.11636465                           
Co       8.74486509      20.91129745      14.13575876                           
Co       7.49559865      17.30588777      16.15515286                           
Co       7.49559865      18.74805426      18.17454697                           
Co       8.74486509      19.46912098      16.15515286                           
Co       8.74486509      20.91129745      18.17454697                           
Co       7.49559865      17.30588777      20.19394108                           
Co       7.49559865      18.74805426      22.21333519                           
Co       8.74486509      19.46912098      20.19394108                           
Co       8.74486509      20.91129745      22.21333519                           
Co       7.49559865      21.63235971       0.00000000                           
Co       7.49559865      23.07452620       2.01939411                           
Co       8.74486509      23.79559293       0.00000000                           
Co       8.74486509      25.23776940       2.01939411                           
Co       7.49559865      21.63235971       4.03878822                           
Co       7.49559865      23.07452620       6.05818233                           
Co       8.74486509      23.79559293       4.03878822                           
Co       8.74486509      25.23776940       6.05818233                           
Co       7.49559865      21.63235971       8.07757643                           
Co       7.49559865      23.07452620      10.09697054                           
Co       8.74486509      23.79559293       8.07757643                           
Co       8.74486509      25.23776940      10.09697054                           
Co       7.49559865      21.63235971      12.11636465                           
Co       7.49559865      23.07452620      14.13575876                           
Co       8.74486509      23.79559293      12.11636465                           
Co       8.74486509      25.23776940      14.13575876                           
Co       7.49559865      21.63235971      16.15515286                           
Co       7.49559865      23.07452620      18.17454697                           
Co       8.74486509      23.79559293      16.15515286                           
Co       8.74486509      25.23776940      18.17454697                           
Co       7.49559865      21.63235971      20.19394108                           
Co       7.49559865      23.07452620      22.21333519                           
Co       8.74486509      23.79559293      20.19394108                           
Co       8.74486509      25.23776940      22.21333519                           
Co       9.99413154       0.00000000       0.00000000                           
Co       9.99413154       1.44216649       2.01939411                           
Co      11.24339798       2.16323321       0.00000000                           
Co      11.24339798       3.60540968       2.01939411                           
Co       9.99413154       0.00000000       4.03878822                           
Co       9.99413154       1.44216649       6.05818233                           
Co      11.24339798       2.16323321       4.03878822                           
Co      11.24339798       3.60540968       6.05818233                           
Co       9.99413154       0.00000000       8.07757643                           
Co       9.99413154       1.44216649      10.09697054                           
Co      11.24339798       2.16323321       8.07757643                           
Co      11.24339798       3.60540968      10.09697054                           
Co       9.99413154       0.00000000      12.11636465                           
Co       9.99413154       1.44216649      14.13575876                           
Co      11.24339798       2.16323321      12.11636465                           
Co      11.24339798       3.60540968      14.13575876                           
Co       9.99413154       0.00000000      16.15515286                           
Co       9.99413154       1.44216649      18.17454697                           
Co      11.24339798       2.16323321      16.15515286                           
Co      11.24339798       3.60540968      18.17454697                           
Co       9.99413154       0.00000000      20.19394108                           
Co       9.99413154       1.44216649      22.21333519                           
Co      11.24339798       2.16323321      20.19394108                           
Co      11.24339798       3.60540968      22.21333519                           
Co       9.99413154       4.32647194       0.00000000                           
Co       9.99413154       5.76863843       2.01939411                           
Co      11.24339798       6.48970515       0.00000000                           
Co      11.24339798       7.93188162       2.01939411                           
Co       9.99413154       4.32647194       4.03878822                           
Co       9.99413154       5.76863843       6.05818233                           
Co      11.24339798       6.48970515       4.03878822                           
Co      11.24339798       7.93188162       6.05818233                           
Co       9.99413154       4.32647194       8.07757643                           
Co       9.99413154       5.76863843      10.09697054                           
Co      11.24339798       6.48970515       8.07757643                           
Co      11.24339798       7.93188162      10.09697054                           
Co       9.99413154       4.32647194      12.11636465                           
Co       9.99413154       5.76863843      14.13575876                           
Co      11.24339798       6.48970515      12.11636465                           
Co      11.24339798       7.93188162      14.13575876                           
Co       9.99413154       4.32647194      16.15515286                           
Co       9.99413154       5.76863843      18.17454697                           
Co      11.24339798       6.48970515      16.15515286                           
Co      11.24339798       7.93188162      18.17454697                           
Co       9.99413154       4.32647194      20.19394108                           
Co       9.99413154       5.76863843      22.21333519                           
Co      11.24339798       6.48970515      20.19394108                           
Co      11.24339798       7.93188162      22.21333519                           
Co       9.99413154       8.65294389       0.00000000                           
Co       9.99413154      10.09511038       2.01939411                           
Co      11.24339798      10.81617710       0.00000000                           
Co      11.24339798      12.25835357       2.01939411                           
Co       9.99413154       8.65294389       4.03878822                           
Co       9.99413154      10.09511038       6.05818233                           
Co      11.24339798      10.81617710       4.03878822                           
Co      11.24339798      12.25835357       6.05818233                           
Co       9.99413154       8.65294389       8.07757643                           
Co       9.99413154      10.09511038      10.09697054                           
Co      11.24339798      10.81617710       8.07757643                           
Co      11.24339798      12.25835357      10.09697054                           
Co       9.99413154       8.65294389      12.11636465                           
Co       9.99413154      10.09511038      14.13575876                           
Co      11.24339798      10.81617710      12.11636465                           
Co      11.24339798      12.25835357      14.13575876                           
Co       9.99413154       8.65294389      16.15515286                           
Co       9.99413154      10.09511038      18.17454697                           
Co      11.24339798      10.81617710      16.15515286                           
Co      11.24339798      12.25835357      18.17454697                           
Co       9.99413154       8.65294389      20.19394108                           
Co       9.99413154      10.09511038      22.21333519                           
Co      11.24339798      10.81617710      20.19394108                           
Co      11.24339798      12.25835357      22.21333519                           
Co       9.99413154      12.97941583       0.00000000                           
Co       9.99413154      14.42158232       2.01939411                           
Co      11.24339798      15.14264904       0.00000000                           
Co      11.24339798      16.58482551       2.01939411                           
Co       9.99413154      12.97941583       4.03878822                           
Co       9.99413154      14.42158232       6.05818233                           
Co      11.24339798      15.14264904       4.03878822                           
Co      11.24339798      16.58482551       6.05818233                           
Co       9.99413154      12.97941583       8.07757643                           
Co       9.99413154      14.42158232      10.09697054                           
Co      11.24339798      15.14264904       8.07757643                           
Co      11.24339798      16.58482551      10.09697054                           
Co       9.99413154      12.97941583      12.11636465                           
Co       9.99413154      14.42158232      14.13575876                           
Co      11.24339798      15.14264904      12.11636465                           
Co      11.24339798      16.58482551      14.13575876                           
Co       9.99413154      12.97941583      16.15515286                           
Co       9.99413154      14.42158232      18.17454697                           
Co      11.24339798      15.14264904      16.15515286                           
Co      11.24339798      16.58482551      18.17454697                           
Co       9.99413154      12.97941583      20.19394108                           
Co       9.99413154      14.42158232      22.21333519                           
Co      11.24339798      15.14264904      20.19394108                           
Co      11.24339798      16.58482551      22.21333519                           
Co       9.99413154      17.30588777       0.00000000                           
Co       9.99413154      18.74805426       2.01939411                           
Co      11.24339798      19.46912098       0.00000000                           
Co      11.24339798      20.91129745       2.01939411                           
Co       9.99413154      17.30588777       4.03878822                           
Co       9.99413154      18.74805426       6.05818233                           
Co      11.24339798      19.46912098       4.03878822                           
Co      11.24339798      20.91129745       6.05818233                           
Co       9.99413154      17.30588777       8.07757643                           
Co       9.99413154      18.74805426      10.09697054                           
Co      11.24339798      19.46912098       8.07757643                           
Co      11.24339798      20.91129745      10.09697054                           
Co       9.99413154      17.30588777      12.11636465                           
Co       9.99413154      18.74805426      14.13575876                           
Co      11.24339798      19.46912098      12.11636465                           
Co      11.24339798      20.91129745      14.13575876                           
Co       9.99413154      17.30588777      16.15515286                           
Co       9.99413154      18.74805426      18.17454697                           
Co      11.24339798      19.46912098      16.15515286                           
Co      11.24339798      20.91129745      18.17454697                           
Co       9.99413154      17.30588777      20.19394108                           
Co       9.99413154      18.74805426      22.21333519                           
Co      11.24339798      19.46912098      20.19394108                           
Co      11.24339798      20.91129745      22.21333519                           
Co       9.99413154      21.63235971       0.00000000                           
Co       9.99413154      23.07452620       2.01939411                           
Co      11.24339798      23.79559293       0.00000000                           
Co      11.24339798      25.23776940       2.01939411                           
Co       9.99413154      21.63235971       4.03878822                           
Co       9.99413154      23.07452620       6.05818233                           
Co      11.24339798      23.79559293       4.03878822                           
Co      11.24339798      25.23776940       6.05818233                           
Co       9.99413154      21.63235971       8.07757643                           
Co       9.99413154      23.07452620      10.09697054                           
Co      11.24339798      23.79559293       8.07757643                           
Co      11.24339798      25.23776940      10.09697054                           
Co       9.99413154      21.63235971      12.11636465                           
Co       9.99413154      23.07452620      14.13575876                           
Co      11.24339798      23.79559293      12.11636465                           
Co      11.24339798      25.23776940      14.13575876                           
Co       9.99413154      21.63235971      16.15515286                           
Co       9.99413154      23.07452620      18.17454697                           
Co      11.24339798      23.79559293      16.15515286                           
Co      11.24339798      25.23776940      18.17454697                           
Co       9.99413154      21.63235971      20.19394108                           
Co       9.99413154      23.07452620      22.21333519                           
Co      11.24339798      23.79559293      20.19394108                           
Co      11.24339798      25.23776940      22.21333519                           
Co      12.49266442       0.00000000       0.00000000                           
Co      12.49266442       1.44216649       2.01939411                           
Co      13.74193086       2.16323321       0.00000000                           
Co      13.74193086       3.60540968       2.01939411                           
Co      12.49266442       0.00000000       4.03878822                           
Co      12.49266442       1.44216649       6.05818233                           
Co      13.74193086       2.16323321       4.03878822                           
Co      13.74193086       3.60540968       6.05818233                           
Co      12.49266442       0.00000000       8.07757643                           
Co      12.49266442       1.44216649      10.09697054                           
Co      13.74193086       2.16323321       8.07757643                           
Co      13.74193086       3.60540968      10.09697054                           
Co      12.49266442       0.00000000      12.11636465                           
Co      12.49266442       1.44216649      14.13575876                           
Co      13.74193086       2.16323321      12.11636465                           
Co      13.74193086       3.60540968      14.13575876                           
Co      12.49266442       0.00000000      16.15515286                           
Co      12.49266442       1.44216649      18.17454697                           
Co      13.74193086       2.16323321      16.15515286                           
Co      13.74193086       3.60540968      18.17454697                           
Co      12.49266442       0.00000000      20.19394108                           
Co      12.49266442       1.44216649      22.21333519                           
Co      13.74193086       2.16323321      20.19394108                           
Co      13.74193086       3.60540968      22.21333519                           
Co      12.49266442       4.32647194       0.00000000                           
Co      12.49266442       5.76863843       2.01939411                           
Co      13.74193086       6.48970515       0.00000000                           
Co      13.74193086       7.93188162       2.01939411                           
Co      12.49266442       4.32647194       4.03878822                           
Co      12.49266442       5.76863843       6.05818233                           
Co      13.74193086       6.48970515       4.03878822                           
Co      13.74193086       7.93188162       6.05818233                           
Co      12.49266442       4.32647194       8.07757643                           
Co      12.49266442       5.76863843      10.09697054                           
Co      13.74193086       6.48970515       8.07757643                           
Co      13.74193086       7.93188162      10.09697054                           
Co      12.49266442       4.32647194      12.11636465                           
Co      12.49266442       5.76863843      14.13575876                           
Co      13.74193086       6.48970515      12.11636465                           
Co      13.74193086       7.93188162      14.13575876                           
Co      12.49266442       4.32647194      16.15515286                           
Co      12.49266442       5.76863843      18.17454697                           
Co      13.74193086       6.48970515      16.15515286                           
Co      13.74193086       7.93188162      18.17454697                           
Co      12.49266442       4.32647194      20.19394108                           
Co      12.49266442       5.76863843      22.21333519                           
Co      13.74193086       6.48970515      20.19394108                           
Co      13.74193086       7.93188162      22.21333519                           
Co      12.49266442       8.65294389       0.00000000                           
Co      12.49266442      10.09511038       2.01939411                           
Co      13.74193086      10.81617710       0.00000000                           
Co      13.74193086      12.25835357       2.01939411                           
Co      12.49266442       8.65294389       4.03878822                           
Co      12.49266442      10.09511038       6.05818233                           
Co      13.74193086      10.81617710       4.03878822                           
Co      13.74193086      12.25835357       6.05818233                           
Co      12.49266442       8.65294389       8.07757643                           
Co      12.49266442      10.09511038      10.09697054                           
Co      13.74193086      10.81617710       8.07757643                           
Co      13.74193086      12.25835357      10.09697054                           
Co      12.49266442       8.65294389      12.11636465                           
Co      12.49266442      10.09511038      14.13575876                           
Co      13.74193086      10.81617710      12.11636465                           
Co      13.74193086      12.25835357      14.13575876                           
Co      12.49266442       8.65294389      16.15515286                           
Co      12.49266442      10.09511038      18.17454697                           
Co      13.74193086      10.81617710      16.15515286                           
Co      13.74193086      12.25835357      18.17454697                           
Co      12.49266442       8.65294389      20.19394108                           
Co      12.49266442      10.09511038      22.21333519                           
Co      13.74193086      10.81617710      20.19394108                           
Co      13.74193086      12.25835357      22.21333519                           
Co      12.49266442      12.97941583       0.00000000                           
Co      12.49266442      14.42158232       2.01939411                           
Co      13.74193086      15.14264904       0.00000000                           
Co      13.74193086      16.58482551       2.01939411                           
Co      12.49266442      12.97941583       4.03878822                           
Co      12.49266442      14.42158232       6.05818233                           
Co      13.74193086      15.14264904       4.03878822                           
Co      13.74193086      16.58482551       6.05818233                           
Co      12.49266442      12.97941583       8.07757643                           
Co      12.49266442      14.42158232      10.09697054                           
Co      13.74193086      15.14264904       8.07757643                           
Co      13.74193086      16.58482551      10.09697054                           
Co      12.49266442      12.97941583      12.11636465                           
Co      12.49266442      14.42158232      14.13575876                           
Co      13.74193086      15.14264904      12.11636465                           
Co      13.74193086      16.58482551      14.13575876                           
Co      12.49266442      12.97941583      16.15515286                           
Co      12.49266442      14.42158232      18.17454697                           
Co      13.74193086      15.14264904      16.15515286                           
Co      13.74193086      16.58482551      18.17454697                           
Co      12.49266442      12.97941583      20.19394108                           
Co      12.49266442      14.42158232      22.21333519                           
Co      13.74193086      15.14264904      20.19394108                           
Co      13.74193086      16.58482551      22.21333519                           
Co      12.49266442      17.30588777       0.00000000                           
Co      12.49266442      18.74805426       2.01939411                           
Co      13.74193086      19.46912098       0.00000000                           
Co      13.74193086      20.91129745       2.01939411                           
Co      12.49266442      17.30588777       4.03878822                           
Co      12.49266442      18.74805426       6.05818233                           
Co      13.74193086      19.46912098       4.03878822                           
Co      13.74193086      20.91129745       6.05818233                           
Co      12.49266442      17.30588777       8.07757643                           
Co      12.49266442      18.74805426      10.09697054                           
Co      13.74193086      19.46912098       8.07757643                           
Co      13.74193086      20.91129745      10.09697054                           
Co      12.49266442      17.30588777      12.11636465                           
Co      12.49266442      18.74805426      14.13575876                           
Co      13.74193086      19.46912098      12.11636465                           
Co      13.74193086      20.91129745      14.13575876                           
Co      12.49266442      17.30588777      16.15515286                           
Co      12.49266442      18.74805426      18.17454697                           
Co      13.74193086      19.46912098      16.15515286                           
Co      13.74193086      20.91129745      18.17454697                           
Co      12.49266442      17.30588777      20.19394108                           
Co      12.49266442      18.74805426      22.21333519                           
Co      13.74193086      19.46912098      20.19394108                           
Co      13.74193086      20.91129745      22.21333519                           
Co      12.49266442      21.63235971       0.00000000                           
Co      12.49266442      23.07452620       2.01939411                           
Co      13.74193086      23.79559293       0.00000000                           
Co      13.74193086      25.23776940       2.01939411                           
Co      12.49266442      21.63235971       4.03878822                           
Co      12.49266442      23.07452620       6.05818233                           
Co      13.74193086      23.79559293       4.03878822                           
Co      13.74193086      25.23776940       6.05818233                           
Co      12.49266442      21.63235971       8.07757643                           
Co      12.49266442      23.07452620      10.09697054                           
[...]
*    Co    700     -0.00005895  -0.00061139   0.00012167 *
*    Co    701     -0.00001578  -0.00008490  -0.00000003 *
*    Co    702     -0.00002336  -0.00046019  -0.00010240 *
*    Co    703     -0.00006829  -0.00016609  -0.00000000 *
*    Co    704     -0.00005895  -0.00061139  -0.00012164 *
*    Co    705     -0.00001221  -0.00010095  -0.00000003 *
*    Co    706     -0.00002336  -0.00046019   0.00010237 *
*    Co    707     -0.00012689  -0.00014588   0.00000000 *
*    Co    708     -0.00005895  -0.00061139   0.00012167 *
*    Co    709     -0.00001578  -0.00008490  -0.00000003 *
*    Co    710     -0.00002336  -0.00046019  -0.00010240 *
*    Co    711     -0.00006829  -0.00016609  -0.00000000 *
*    Co    712     -0.00005895  -0.00061139  -0.00012164 *
*    Co    713     -0.00001221  -0.00010095  -0.00000003 *
*    Co    714     -0.00002336  -0.00046019   0.00010237 *
*    Co    715     -0.00012689  -0.00014588   0.00000000 *
*    Co    716     -0.00005895  -0.00061139   0.00012167 *
*    Co    717     -0.00001578  -0.00008490  -0.00000003 *
*    Co    718     -0.00002336  -0.00046019  -0.00010240 *
*    Co    719     -0.00006829  -0.00016609  -0.00000000 *
*    Co    720     -0.00005895  -0.00061139  -0.00012164 *
*    Co    721     -0.00011386  -0.00025637  -0.00000001 *
*    Co    722     -0.00016792  -0.00044272   0.00007969 *
*    Co    723     -0.00002806  -0.00003485  -0.00000003 *
*    Co    724     -0.00003155  -0.00037315   0.00012136 *
*    Co    725     -0.00014676  -0.00024987  -0.00000001 *
*    Co    726     -0.00016792  -0.00044272  -0.00007961 *
*    Co    727     -0.00001930  -0.00004135  -0.00000003 *
*    Co    728     -0.00003155  -0.00037315  -0.00012138 *
*    Co    729     -0.00011386  -0.00025637  -0.00000001 *
*    Co    730     -0.00016792  -0.00044272   0.00007969 *
*    Co    731     -0.00002806  -0.00003485  -0.00000003 *
*    Co    732     -0.00003155  -0.00037315   0.00012136 *
*    Co    733     -0.00014676  -0.00024987  -0.00000001 *
*    Co    734     -0.00016792  -0.00044272  -0.00007961 *
*    Co    735     -0.00001930  -0.00004135  -0.00000003 *
*    Co    736     -0.00003155  -0.00037315  -0.00012138 *
*    Co    737     -0.00011386  -0.00025637  -0.00000001 *
*    Co    738     -0.00016792  -0.00044272   0.00007969 *
*    Co    739     -0.00002806  -0.00003485  -0.00000003 *
*    Co    740     -0.00003155  -0.00037315   0.00012136 *
*    Co    741     -0.00014676  -0.00024987  -0.00000001 *
*    Co    742     -0.00016792  -0.00044272  -0.00007961 *
*    Co    743     -0.00001930  -0.00004135  -0.00000003 *
*    Co    744     -0.00003155  -0.00037315  -0.00012138 *
*    Co    745     -0.00010596   0.00005426   0.00000001 *
*    Co    746     -0.00014637  -0.00014518   0.00008703 *
*    Co    747     -0.00001106   0.00028774  -0.00000001 *
*    Co    748     -0.00004208   0.00006425   0.00010221 *
*    Co    749     -0.00014703   0.00001200   0.00000001 *
*    Co    750     -0.00014637  -0.00014518  -0.00008698 *
*    Co    751     -0.00002350   0.00027516  -0.00000002 *
*    Co    752     -0.00004208   0.00006425  -0.00010214 *
*    Co    753     -0.00010596   0.00005426   0.00000001 *
*    Co    754     -0.00014637  -0.00014518   0.00008703 *
*    Co    755     -0.00001106   0.00028774  -0.00000001 *
*    Co    756     -0.00004208   0.00006425   0.00010221 *
*    Co    757     -0.00014703   0.00001200   0.00000001 *
*    Co    758     -0.00014637  -0.00014518  -0.00008698 *
*    Co    759     -0.00002350   0.00027516  -0.00000002 *
*    Co    760     -0.00004208   0.00006425  -0.00010214 *
*    Co    761     -0.00010596   0.00005426   0.00000001 *
*    Co    762     -0.00014637  -0.00014518   0.00008703 *
*    Co    763     -0.00001106   0.00028774  -0.00000001 *
*    Co    764     -0.00004208   0.00006425   0.00010221 *
*    Co    765     -0.00014703   0.00001200   0.00000001 *
*    Co    766     -0.00014637  -0.00014518  -0.00008698 *
*    Co    767     -0.00002350   0.00027516  -0.00000002 *
*    Co    768     -0.00004208   0.00006425  -0.00010214 *
*    Co    769     -0.00013758   0.00048627  -0.00000002 *
*    Co    770     -0.00018539   0.00010603   0.00010311 *
*    Co    771     -0.00002381   0.00045093   0.00000001 *
*    Co    772     -0.00005782   0.00025635   0.00010711 *
*    Co    773     -0.00018902   0.00044952  -0.00000002 *
*    Co    774     -0.00018539   0.00010603  -0.00010312 *
*    Co    775     -0.00004322   0.00046397   0.00000000 *
*    Co    776     -0.00005782   0.00025635  -0.00010707 *
*    Co    777     -0.00013758   0.00048627  -0.00000002 *
*    Co    778     -0.00018539   0.00010603   0.00010311 *
*    Co    779     -0.00002381   0.00045093   0.00000001 *
*    Co    780     -0.00005782   0.00025635   0.00010711 *
*    Co    781     -0.00018902   0.00044952  -0.00000002 *
*    Co    782     -0.00018539   0.00010603  -0.00010312 *
*    Co    783     -0.00004322   0.00046397   0.00000000 *
*    Co    784     -0.00005782   0.00025635  -0.00010707 *
*    Co    785     -0.00013758   0.00048627  -0.00000002 *
*    Co    786     -0.00018539   0.00010603   0.00010311 *
*    Co    787     -0.00002381   0.00045093   0.00000001 *
*    Co    788     -0.00005782   0.00025635   0.00010711 *
*    Co    789     -0.00018902   0.00044952  -0.00000002 *
*    Co    790     -0.00018539   0.00010603  -0.00010312 *
*    Co    791     -0.00004322   0.00046397   0.00000000 *
*    Co    792     -0.00005782   0.00025635  -0.00010707 *
*    Co    793     -0.00013965   0.00062198  -0.00000001 *
*    Co    794     -0.00017984   0.00008461   0.00009907 *
*    Co    795     -0.00002356   0.00039118  -0.00000003 *
*    Co    796     -0.00004837   0.00001145   0.00011175 *
*    Co    797     -0.00017955   0.00060848  -0.00000001 *
*    Co    798     -0.00017984   0.00008461  -0.00009900 *
*    Co    799     -0.00004735   0.00040446  -0.00000003 *
*    Co    800     -0.00004836   0.00001145  -0.00011177 *
*    Co    801     -0.00013965   0.00062198  -0.00000001 *
*    Co    802     -0.00017984   0.00008461   0.00009907 *
*    Co    803     -0.00002356   0.00039118  -0.00000003 *
*    Co    804     -0.00004837   0.00001145   0.00011175 *
*    Co    805     -0.00017955   0.00060848  -0.00000001 *
*    Co    806     -0.00017984   0.00008461  -0.00009900 *
*    Co    807     -0.00004735   0.00040446  -0.00000003 *
*    Co    808     -0.00004836   0.00001145  -0.00011177 *
*    Co    809     -0.00013965   0.00062198  -0.00000001 *
*    Co    810     -0.00017984   0.00008461   0.00009907 *
*    Co    811     -0.00002356   0.00039118  -0.00000003 *
*    Co    812     -0.00004837   0.00001145   0.00011175 *
*    Co    813     -0.00017955   0.00060848  -0.00000001 *
*    Co    814     -0.00017984   0.00008461  -0.00009900 *
*    Co    815     -0.00004735   0.00040446  -0.00000003 *
*    Co    816     -0.00004836   0.00001145  -0.00011177 *
*    Co    817     -0.00013449   0.00030877   0.00000001 *
*    Co    818     -0.00016010  -0.00021084   0.00008962 *
*    Co    819     -0.00002456   0.00006353  -0.00000002 *
*    Co    820     -0.00004330  -0.00041901   0.00010380 *
*    Co    821     -0.00018152   0.00033310   0.00000001 *
*    Co    822     -0.00016010  -0.00021084  -0.00008958 *
*    Co    823     -0.00004257   0.00007101  -0.00000002 *
*    Co    824     -0.00004330  -0.00041901  -0.00010374 *
*    Co    825     -0.00013449   0.00030877   0.00000001 *
*    Co    826     -0.00016010  -0.00021084   0.00008962 *
*    Co    827     -0.00002456   0.00006353  -0.00000002 *
*    Co    828     -0.00004330  -0.00041901   0.00010380 *
*    Co    829     -0.00018152   0.00033310   0.00000001 *
*    Co    830     -0.00016010  -0.00021084  -0.00008958 *
*    Co    831     -0.00004257   0.00007101  -0.00000002 *
*    Co    832     -0.00004330  -0.00041901  -0.00010374 *
*    Co    833     -0.00013449   0.00030877   0.00000001 *
*    Co    834     -0.00016010  -0.00021084   0.00008962 *
*    Co    835     -0.00002456   0.00006353  -0.00000002 *
*    Co    836     -0.00004330  -0.00041901   0.00010380 *
*    Co    837     -0.00018152   0.00033310   0.00000001 *
*    Co    838     -0.00016010  -0.00021084  -0.00008958 *
*    Co    839     -0.00004257   0.00007101  -0.00000002 *
*    Co    840     -0.00004330  -0.00041901  -0.00010374 *
*    Co    841     -0.00010543  -0.00012806  -0.00000002 *
*    Co    842     -0.00016835  -0.00047029   0.00007573 *
*    Co    843     -0.00003238  -0.00014573   0.00000000 *
*    Co    844     -0.00004478  -0.00060412   0.00012190 *
*    Co    845     -0.00014435  -0.00007703  -0.00000002 *
*    Co    846     -0.00016835  -0.00047029  -0.00007574 *
*    Co    847     -0.00002378  -0.00015120   0.00000000 *
*    Co    848     -0.00004478  -0.00060412  -0.00012186 *
*    Co    849     -0.00010543  -0.00012806  -0.00000002 *
*    Co    850     -0.00016835  -0.00047029   0.00007573 *
*    Co    851     -0.00003238  -0.00014573   0.00000000 *
*    Co    852     -0.00004478  -0.00060412   0.00012190 *
*    Co    853     -0.00014435  -0.00007703  -0.00000002 *
*    Co    854     -0.00016835  -0.00047029  -0.00007574 *
*    Co    855     -0.00002378  -0.00015120   0.00000000 *
*    Co    856     -0.00004478  -0.00060412  -0.00012186 *
*    Co    857     -0.00010543  -0.00012806  -0.00000002 *
*    Co    858     -0.00016835  -0.00047029   0.00007573 *
*    Co    859     -0.00003238  -0.00014573   0.00000000 *
*    Co    860     -0.00004478  -0.00060412   0.00012190 *
*    Co    861     -0.00014435  -0.00007703  -0.00000002 *
*    Co    862     -0.00016835  -0.00047029  -0.00007574 *
*    Co    863     -0.00002378  -0.00015120   0.00000000 *
*    Co    864     -0.00004478  -0.00060412  -0.00012186 *
*                                                        *
**********************************************************
* TOTAL:            0.00000000  -0.00000000  -0.00000000 *
**********************************************************
 
 
***********************************************************
********** Summary of Forces (values in Eh/a) *************
*                                                         *
* ---------------------- Minimum ------------------------ *
* Atom:       461, |F|min =    0.00000997                 *
* Components:     Fx|min       Fy|min       Fz|min        *
*              -0.00000058  -0.00000996   0.00000000      *
*                                                         *
* ---------------------- Maximum ------------------------ *
* Atom:       217, |F|max =    0.00063759                 *
* Components:     Fx|max       Fy|max       Fz|max        *
*               0.00014024   0.00062197  -0.00000002      *
*                                                         *
* ---------------- Root Mean Square Force --------------- *
*                  |F|rms =    0.00034163                 *
* Components:     Fx|rms       Fy|rms       Fz|rms        *
*               0.00008031   0.00032362   0.00007436      *
***********************************************************
 

------------------------------ TIMING INFORMATION ------------------------------
AVERAGE TIME:   47842.527s on    320 proc(s)                                    
TOTAL TIME:     47842.543s on    320 proc(s)                                    
==================== AVERAGE TIMINGS FROM ALL PROCS (CUMULATIVE) =====================
|| TAG                                         #calls     cpu time   %total  Gflops ||
|| sw_bessel_init_cpu                         :     1        0.05s   0.000%  ------ || (1 procs only)
|| hash_table_free                            :   113        0.00s   0.000%  ------ ||
|| onetep.F90 main loop imbalance             :     1        0.00s   0.000%  ------ ||
|| onetep.F90 final imbalance                 :     1        0.00s   0.000%  ------ ||
|| ewald_calculate_forces_realspace           :     1        0.00s   0.000%  ------ ||
|| density_fftbox_interp_mult_imbal           : 21684        0.01s   0.000%  ------ ||
|| linalg_dgemv                               :    12        0.03s   0.000%  ------ ||
|| augmentation_density_forces                :     1        0.13s   0.000%  ------ ||
|| paw_tcore_density                          :     1        0.15s   0.000%  ------ ||
|| pseudo_make_structure_factor               :     1        0.16s   0.000%  ------ ||
|| paw_nlcc_calculate_forces                  :     1        0.20s   0.000%  ------ ||
|| sw_init                                    :   554        0.24s   0.001%  ------ ||
|| ewald_calculate_energy                     :     1        0.29s   0.001%  ------ ||
|| paw_dij_hartree                            :   423        0.34s   0.001%  ------ ||
|| sparse_set_to_garbage                      :  1350        0.36s   0.001%  ------ ||
|| ewald_calculate_forces_recipspace          :     1        0.48s   0.001%  ------ ||
|| ewald_calculate_forces                     :     1        0.49s   0.001%  ------ ||
|| paw_sphere_density_on_grid                 :     1        0.60s   0.001%  ------ ||
|| paw_tcore_hartree_calc_forces              :     1        0.60s   0.001%  ------ ||
|| basis_extract_function_from_box            :  6809        0.72s   0.002%  ------ ||
|| paw_species_calc_proj_prec_mat             :     1        0.84s   0.002%  ------ ||
|| paw_dataset_init                           :     1        1.20s   0.003%  ------ ||
|| integrals_grad_spam3                       :     2        1.26s   0.003%  ------ ||
|| nonsc_forces_ngwfs_calc                    :     1        1.26s   0.003%  ------ ||
|| sparse_spam3toblacs_real_fast_imbal        :   976        1.73s   0.004%  ------ ||
|| paw_tcore_hartree_on_grid                  :     1        2.14s   0.004%  ------ ||
|| sparse_init                                :     1        2.30s   0.005%  ------ ||
|| sparse_blacstospam3_real_fast_imbal        :   880        2.53s   0.005%  ------ ||
|| restart_kernel_read                        :     2        2.90s   0.006%  ------ ||
|| fourier_filter_cell                        :   300        3.42s   0.007% 138.636 ||
|| hartree_on_grid_single                     :   276        3.72s   0.008%  ------ ||
|| restart_ngwfs_tightbox_input               :     1        4.25s   0.009%  ------ ||
|| fourier_interpolate_cell                   :   556        5.26s   0.011% 167.093 ||
|| energy_and_force_init_cell                 :     1        7.07s   0.015%  ------ ||
|| sparse_spam3toblacs_real_fast_B2           : 312.3k      14.30s   0.030%  ------ ||
|| basis_copy_function_to_box                 : 38820       17.07s   0.036%  ------ ||
|| fourier_apply_cell_backward                :  2485       18.89s   0.039% 187.282 ||
|| fourier_apply_cell_forward                 :  2485       23.11s   0.048% 153.044 ||
|| augmentation_screen_dij_spam3              :   275       31.42s   0.066%  ------ ||
|| projectors_func_grad_ovlp_box_spam3        :     6       33.07s   0.069%  ------ ||
|| hamiltonian_energy_components              :     1       39.59s   0.083%  ------ ||
|| xc_energy_potential                        :   276       41.79s   0.087%  ------ ||
|| aug_nl_calculate_forces                    :     1       44.45s   0.093%  ------ ||
|| fourier_apply_box_pair                     : 10820       46.90s   0.098%  2.461k ||
|| aug_density_on_grid_spam3                  :   278       70.85s   0.148%  ------ ||
|| restart_hamiltonian_write                  :    48       84.66s   0.177%  ------ ||
|| cell_grid_extract_box_real                 : 13593       99.97s   0.209%  ------ ||
|| projectors_init_fftbox_recip               :   809      113.50s   0.237%  ------ ||
|| forces_calculate                           :     1      121.35s   0.254%  ------ ||
|| eigenstates_calculate                      :     1      121.88s   0.255%  ------ ||
|| sparse_trace                               :  6696      149.10s   0.312%  ------ ||
|| restart_kernel_write                       :    48      152.35s   0.318%  ------ ||
|| cell_grid_deposit_box_real                 : 24297      170.06s   0.355%  ------ ||
|| fourier_filter                             :  7021      217.64s   0.455%  ------ ||
|| paw_dij_xc                                 :   423      296.15s   0.619%  ------ ||
|| fourier_interpolate                        :  7021      299.11s   0.625%  ------ ||
|| properties_calculate                       :     1      313.59s   0.655%  ------ ||
|| density_fftbox_deposit_to_cell             : 21684      316.89s   0.662%  ------ ||
|| aug_nonlocal_mat_spam3_embed_array         :   374      378.03s   0.790%  ------ ||
|| ngwf_gradient_coeffs                       :    48      380.67s   0.796%  ------ ||
|| sparse_embed_array_hotelling_invert        :   113      452.94s   0.947%  ------ ||
|| potential_apply_to_ngwf_batch              :   612      491.23s   1.027%  ------ ||
|| sparse_spam3toblacs_real_fast_B1           : 312.3k     586.05s   1.225%  ------ ||
|| sparse_spam3toblacs_real_fast              :   976      632.11s   1.321%  ------ ||
|| restart_ngwfs_tightbox_output              :    47      704.24s   1.472%  ------ ||
|| fourier_interpolate_product                : 19515      746.70s   1.561%  ------ ||
|| fourier_apply_box                          : 107.0k     775.08s   1.620%  5.212k ||
|| density_fftbox_interpolate_multiply        : 21684      840.47s   1.757%  ------ ||
|| sparse_blacstospam3_real_fast              :   880     1070.18s   2.237%  ------ ||
|| projectors_func_ovlp_box_spam3             :   226     1222.75s   2.556%  ------ ||
|| projectors_gradient_batch                  :   288     1281.28s   2.678%  ------ ||
|| density_batch_interp_deposit               :  1668     1338.01s   2.797%  ------ ||
|| dense_eigensolve                           :   318     1350.01s   2.822%  ------ ||
|| edft_diag_ngwf_ham                         :   316     1729.48s   3.615%  ------ ||
|| sparse_product                             :  9676     2243.66s   4.690%  ------ ||
|| function_ops_brappd_ketppd_spam3           :   450     2700.72s   5.645%  ------ ||
|| basis_dot_function_with_box                : 72.36M    3116.72s   6.515%  ------ ||
|| edft_apply_smearing_operator               :   158     3193.92s   6.676%  ------ ||
|| integrals_locpot_mat_els_batch             :   612     3371.98s   7.048%  ------ ||
|| integrals_kinetic_spam3                    :   226     3667.56s   7.666%  ------ ||
|| integrals_locpot_dbl_grid                  :   204     3877.44s   8.105%  ------ ||
|| projectors_grad_precond_batch              :   288     5874.87s  12.280%  ------ ||
|| ngwf_gradient_build_batch                  :   288     7616.04s  15.919%  ------ ||
|| density_batch_row_sums                     :  1668     8687.99s  18.160%  ------ ||
|| basis_add_function_to_box                  : 174.1M    9719.70s  20.316%  ------ ||
|| density_on_dbl_grid                        :   556    10075.21s  21.059%  ------ ||
|| hamiltonian_lhxc_calculate                 :   274    10296.92s  21.523%  ------ ||
|| edft_calculate                             :    48    16181.22s  33.822%  ------ ||
|| ngwf_gradient_batch                        :   288    17319.22s  36.200%  ------ ||
|| ngwf_gradient_lnv                          :    48    18515.39s  38.701%  ------ ||
|| ngwf_cg_optimise                           :     1    47277.66s  98.819%  ------ ||
|| energy_and_forces                          :     1    47832.94s  99.980%  ------ ||
|| total_time                                 :     1    47842.53s 100.000%  ------ ||
======================================================================================
Overhead of generating timer report: 
- 0 ms averaging over threads,
- 29 ms ensuring consistency across MPI ranks,
- 5 ms printing in order.

Job completed: 28-04-2025 23:42 (+0100)

onetep_launcher: ONETEP seems to have finished correctly (zero exit code).
                 Brought to you by PID 80068 on nid005629.
